# LAMMPS data file written by OVITO Basic 3.5.4
200 atoms
4 atom types
0.0 17.520744 xlo xhi
0.0 17.520744 ylo yhi
0.0 42.048 zlo zhi

Masses

1 183.84  # W
2 92.90638  # Nb
3 178.49  # Hf
4 91.224  # Zr

Atoms  # atomic

1 1 10.3628297587 -0.5957240432 1.205390857
2 1 4.3140856643 17.5756929077 6.2975247552
3 1 13.1912702166 -1.6629440976 2.6823134016
4 1 0.2351070092 5.7892086127 9.7008818861
5 1 8.2979825707 3.0677054901 6.664640377
6 1 2.9899233736 4.6524701007 6.128958528
7 1 13.6371489728 5.3167694598 2.5025018573
8 1 6.2454910114 17.6047643774 10.6605396058
9 1 15.5737047178 14.0080531365 11.2898123136
10 1 6.7400138356 14.4163607596 13.4521841146
11 1 11.4336366598 10.6968462735 7.012859207
12 1 9.055826759 0.9662904069 11.8977763565
13 1 18.4168689082 7.3583562833 2.6765259149
14 1 8.8904600201 7.3853131744 4.7831164186
15 1 9.150665495 8.7249100141 2.8390897901
16 1 10.3460627571 15.1582896297 -0.3881211206
17 1 17.0790598851 2.50794365 5.3985372538
18 1 11.1874777405 2.7125381083 6.1904659219
19 1 13.8477877374 16.0771454255 7.3239946445
20 1 18.1658591957 5.0968418976 1.7717950771
21 1 17.6049183848 14.0435732912 3.9767408986
22 1 12.6931563408 12.8132820658 7.8854594861
23 1 16.1103994472 10.0022199082 12.2715061286
24 1 5.0045138842 6.2487579293 6.7860472493
25 1 1.1550652102 16.0500720215 1.2561966144
26 1 15.5742107169 16.377920884 4.9794254957
27 1 1.8947812103 1.7003866283 5.8579465536
28 1 6.5032057374 1.9291711018 4.6585879027
29 1 -0.1221779298 12.738987979 8.8526366496
30 1 17.4281037669 4.3473156826 11.6398484582
31 1 0.0111948794 11.7380096527 11.2485304282
32 1 -0.7852035308 14.4935440171 6.6416455872
33 1 11.8895795065 18.0063116215 7.7265891072
34 1 11.0411213592 0.1277430437 10.4411432333
35 1 15.0287563164 13.136620388 8.5051044634
36 1 11.409112524 10.005914157 3.895222441
37 1 16.1637425788 6.7553832075 3.5780497517
38 1 5.8363562339 14.6152839283 2.6845247059
39 1 13.4868083744 3.3639782926 0.8362493626
40 1 5.2829540735 9.0632525759 11.4405295853
41 1 4.28605335 12.0526696 4.3476521933
42 1 4.8520243665 1.2512173012 9.134012615
43 1 0.535462145 1.6261952131 12.0253571366
44 1 0.8942766449 14.445722548 11.0804961082
45 1 12.5107382386 1.1420245205 2.7607816973
46 1 10.6963875805 -3.6304381475 2.1059736595
47 1 17.4343693602 17.4099359819 6.9012305971
48 1 16.082860517 16.5820435087 11.3152698547
49 1 4.2484692516 2.408032133 4.7793350419
50 1 12.1215117569 11.2596404288 13.2342228403
51 2 11.1444602842 8.770550501 1.1700196589
52 2 15.9642599727 7.2356013954 8.5451644339
53 2 20.2676024425 6.5713800036 1.2449424672
54 2 8.8671176584 4.7361731774 9.9633829248
55 2 14.8824207848 0.828025806 2.421554832
56 2 -1.945975773 14.4830336732 2.268878544
57 2 12.7931458251 17.6952033042 5.4360264096
58 2 3.7094880651 11.6169444654 6.6535111123
59 2 3.3039031656 6.7960926561 4.3698762432
60 2 11.9800496202 8.7849255706 9.1789396416
61 2 9.1584634525 10.4963047138 5.007853728
62 2 2.9228296117 19.3889199605 10.6522872653
63 2 1.5534066838 3.289496033 -0.0949460659
64 2 10.0393179811 5.3041345505 5.328648432
65 2 18.4341920182 9.8025079556 1.5596305402
66 2 6.4351695347 16.2055472492 4.9308184282
67 2 6.898271007 3.1368278037 1.9874882822
68 2 6.485864581 4.9791690768 12.2128104845
69 2 2.8058691843 12.2512858052 9.7343680723
70 2 1.2814810575 1.9881674766 3.108807527
71 2 7.5774749127 11.914921861 14.6159840333
72 2 12.0975715875 13.4313249087 12.2435492544
73 2 11.7609648058 5.886799332 1.0227065933
74 2 3.123276209 13.7138474313 3.0824064288
75 2 10.578826542 11.4195541866 1.508651545
76 2 11.0048753201 7.8731923076 6.8735478758
77 2 12.9780224381 3.1537337448 9.4142944915
78 2 8.95131044 15.0725893633 5.3830841933
79 2 5.5062945014 12.5745524676 8.5377686112
80 2 10.0653692249 2.2159049105 8.4079920845
81 2 13.9723241345 2.5179192608 5.0040286214
82 2 8.4704315448 3.6291261942 3.9693560083
83 2 4.4628187345 2.1203635926 1.6471307462
84 2 18.9413243467 16.7492981078 10.4808849005
85 2 -0.0379353893 11.5935141496 13.8555926266
86 2 7.2873163242 14.1102998183 8.2613938349
87 2 2.2578665667 0.1919020809 8.2273538765
88 2 13.5789748465 6.6987314586 9.1744144358
89 2 13.051311535 12.2276683679 2.4054840864
90 2 14.5998840703 10.2219100643 7.7905668211
91 2 10.8480373289 11.3074405226 10.6783608096
92 2 0.9560162426 3.6153371935 7.5108866515
93 2 0.7864853485 4.9727580614 4.4786598854
94 2 9.1354909538 12.0759350455 7.6813492435
95 2 7.6641349654 7.6794335535 10.860072503
96 2 5.536521289 3.8048228134 6.9279542035
97 2 15.887524195 12.531245919 0.5901092006
98 2 16.5959292239 11.2969005686 6.4777059014
99 2 9.6257513314 10.218917346 13.2175024531
100 2 12.9222667001 8.8657640058 11.7435947501
101 3 3.9921905258 9.2435450614 6.0546454157
102 3 2.610223446 4.5464755565 12.1016692109
103 3 3.8703423364 6.6174604363 10.5372527674
104 3 -0.9383315045 4.9876047894 13.8310740173
105 3 6.6942002438 17.8835180128 7.4223264154
106 3 3.6491886726 15.4104425707 0.8230139136
107 3 5.9462558015 4.7478046737 4.4626274035
108 3 6.0663412288 4.7675433687 9.4673788301
109 3 4.2771584186 14.4871301984 5.9791305715
110 3 14.7744623404 12.3425711591 13.1513445504
111 3 7.0846249692 17.1503922654 13.038947303
112 3 13.7920491697 7.9259351785 5.5020152794
113 3 10.7859636106 16.0115025564 4.1859296986
114 3 10.7840163551 5.5874532157 8.0985465562
115 3 12.8150979157 5.0977704971 5.7269767046
116 3 -0.407103948 1.5519153181 9.4553320781
117 3 3.6653377175 17.2759215631 3.6837672538
118 3 9.0613240676 9.3939762421 9.0540280685
119 3 9.2528019713 1.1137882646 2.5346055053
120 3 8.0562982742 12.5010117727 2.0585952346
121 3 9.2463308597 5.859675293 1.9295907091
122 3 5.5783942903 8.9998888052 8.5227536909
123 3 7.5018834148 -0.0817155236 -0.0877188557
124 3 16.070126265 17.1373193375 0.45248904
125 3 13.7227782802 11.1950069298 5.4219769114
126 3 11.5171328166 7.273872307 3.6032180026
127 3 7.9406697738 6.4923863276 7.0145129549
128 3 14.2479979735 14.2593687611 4.7877694502
129 3 10.2956349021 12.7896525392 14.9044421434
130 3 2.6039986761 8.7428813917 9.3322138522
131 3 5.7500278489 2.3593325242 12.0257570131
132 3 11.0128057344 15.1999989872 7.1929705536
133 3 11.1017331466 15.6145373373 12.353313456
134 3 3.8156189207 9.116001579 2.8554729523
135 3 15.9533582154 11.8880877904 3.241984055
136 3 11.7248223143 5.6874188719 11.0013331795
137 3 8.2999031947 -2.1133407528 2.1456030586
138 3 11.6892783313 2.0106352027 0.3050809459
139 3 6.7037339814 10.4499500814 3.1788439373
140 3 7.6037244914 10.9319385653 10.7737193664
141 3 13.6919526336 11.6793959309 10.3196955744
142 3 8.9795996085 13.0210882516 12.2526980582
143 3 15.690824584 3.3659993104 3.2191372742
144 3 4.2728164279 16.9591987234 12.1112464838
145 3 7.867966921 9.7330874389 0.6613044538
146 3 5.5566512222 12.0865366725 12.1785459898
147 3 -2.2423386322 6.6140780567 11.5154200166
148 3 10.0443143717 7.8475536773 11.2784454778
149 3 3.4713152762 4.061972145 8.4839538989
150 3 13.5249557646 4.389625476 13.6434306125
151 4 15.3159575785 4.2557580563 9.3325258483
152 4 17.3636640474 15.6816381075 13.4846001792
153 4 2.3031522585 9.8095236119 11.9118918701
154 4 4.3651185106 7.7119646693 13.4390209882
155 4 14.0039860462 0.5033436428 9.8235266515
156 4 12.6388169797 13.7333275201 0.5141654669
157 4 5.9122965699 8.0966189376 4.8194732218
158 4 10.6903119121 13.9787036126 9.8001340877
159 4 6.3501934007 -0.1936045716 2.2643743622
160 4 1.9089740642 -2.7619287352 7.8924693082
161 4 3.0400733495 3.9595485037 3.0116312352
162 4 0.9922144501 9.8858430967 7.1993282112
163 4 11.377359154 2.3235336144 11.3508664301
164 4 16.3038743653 15.6259422904 8.971614409
165 4 12.9905385568 7.1191660647 13.2170058662
166 4 6.8322661594 10.1936175669 6.4948858733
167 4 9.4598787686 12.7052111383 -0.3465087379
168 4 -0.2763506653 -0.3758408085 3.232880663
169 4 7.7511953672 2.1006806136 9.6369979392
170 4 13.1783675903 15.4874923201 10.2800506176
171 4 1.6444723276 6.7327252061 7.3874202682
172 4 9.0854969125 4.0198254697 12.3773413651
173 4 12.9810309251 0.454879688 12.7022567731
174 4 15.4978896552 9.0712490435 2.6299813018
175 4 10.7851609853 12.7984342865 4.8094351027
176 4 14.8437309523 1.6445361031 7.3153798502
177 4 -0.2466957549 8.1114300986 5.4172132934
178 4 6.9949653651 12.9446361348 5.409579479
179 4 1.5699396082 16.0783955306 5.3821402157
180 4 9.3403107289 18.5687523834 5.4312636326
181 4 16.6794481577 9.5178440477 9.846389831
182 4 1.4122210245 18.2840781382 0.1792695456
183 4 14.096569512 15.7268460072 13.0839924845
184 4 14.9952125016 2.6282638553 11.7877522982
185 4 16.0657560659 6.1809081474 0.733612297
186 4 16.4367686829 2.1700734475 0.305710825
187 4 7.2654162703 9.2058637229 13.7808960365
188 4 5.8084250143 7.0083811739 1.9768640141
189 4 0.7864977882 7.5351270993 11.6221525574
190 4 5.4034801475 13.4371523082 0.3842001446
191 4 7.184697677 14.7552014361 11.2311112032
192 4 2.7025470792 12.9503174112 12.3514355923
193 4 1.2315441338 12.8440640857 1.6470008179
194 4 11.2855045511 3.3880433849 3.3713039405
195 4 1.485772407 10.6902211546 4.0642549805
196 4 4.2916217928 15.3177248959 9.4757514278
197 4 15.9669315358 5.1972760585 6.3934888032
198 4 4.8914204602 4.2439473228 0.4077247392
199 4 9.0863564802 16.6392068633 9.1437399994
200 4 1.6959579099 12.5441706214 6.0930037037
