# LAMMPS data file written by OVITO Basic 3.5.4
200 atoms
4 atom types
0.0 17.510057 xlo xhi
0.0 17.510057 ylo yhi
0.0 42.024 zlo zhi

Masses

1 183.84  # W
2 92.90638  # Nb
3 178.49  # Hf
4 91.224  # Zr

Atoms  # atomic

1 1 14.5548295234 -0.9802511628 11.3540619701
2 1 5.1216428194 18.0556656484 10.0133673564
3 1 13.3068994928 2.4701721073 11.2010735981
4 1 1.1769757777 4.8845256549 11.4297413107
5 1 10.1746169736 3.7333826394 5.1948463483
6 1 3.6257441166 6.0825826657 5.7779062351
7 1 10.0813517562 9.4840821361 1.4521674761
8 1 8.2700463228 0.0897255594 10.630431383
9 1 13.5755601495 12.6980601024 9.9528944002
10 1 10.1737486499 15.1920572688 3.7061440471
11 1 10.4529142903 9.1185826344 6.3691465138
12 1 7.6755087968 5.1094878632 9.4529067161
13 1 17.8656465098 7.3576466308 1.5280955988
14 1 4.9587089374 7.0777998493 1.0804542698
15 1 11.2569204257 11.3491492229 2.8918353336
16 1 11.0414442908 14.7809958984 1.3371990574
17 1 12.5625842661 -0.0480908462 1.355843005
18 1 10.9911280914 1.166275732 7.3596072281
19 1 13.5025931155 15.3700561034 6.6053087866
20 1 15.3936684153 6.3084074194 2.5501579409
21 1 13.7709146025 11.176822421 3.2905699718
22 1 11.8963372784 13.1522263304 8.306264226
23 1 9.9707745206 9.6309120186 11.7453331459
24 1 3.2919045489 3.2985394597 6.9915400241
25 1 6.5628912336 16.5384675371 1.489055723
26 1 0.0416165027 15.2984953021 2.1836023402
27 1 1.1258268 1.5946365135 5.5052335111
28 1 2.8862807516 0.1390291522 5.435417359
29 1 15.2890099291 10.6483272268 10.5772247966
30 1 15.9005810634 2.1184050429 10.9320258643
31 1 -0.7350853254 9.5090413215 12.2829436565
32 1 3.1855969656 14.5763684694 11.5665617892
33 1 13.0803256588 0.4002291239 5.8353190037
34 1 12.5967817577 -0.4169337182 8.3114718401
35 1 16.0032757967 10.070762024 8.0114120753
36 1 13.1991819996 13.1334137002 1.7088441847
37 1 15.7438798862 2.2268689898 5.3672523298
38 1 3.5783275826 12.0341409017 6.6817731355
39 1 10.1482275667 7.0702246484 1.7655967562
40 1 1.8755444045 12.845922378 10.3197248378
41 1 3.277023627 11.7473014789 4.1707945901
42 1 6.7878586949 0.2179914546 8.0254182542
43 1 -0.4954661488 0.7061939065 12.8944642973
44 1 0.8983814905 15.2573739838 12.9114121562
45 1 13.4769412322 1.6367017989 3.5995741248
46 1 12.3933621725 4.1924292704 3.707831731
47 1 0.6136611347 15.0856745673 9.679314378
48 1 -1.5408148007 14.6208427885 11.4248808149
49 1 7.6456408419 7.7587411017 1.4399447957
50 1 7.8967907413 9.8131920622 0.2550112975
51 2 6.7503369191 14.800852303 14.4126603024
52 2 12.2177742976 7.5020494444 8.128364447
53 2 -0.8349616399 7.2995662971 4.2759684751
54 2 6.4511961559 8.0257514356 9.9821998366
55 2 13.4325584907 15.3796673737 0.057844355
56 2 19.13885616 13.8298033756 0.8217801605
57 2 12.363832687 16.2858982725 3.7912813092
58 2 1.2309118312 10.6447681326 7.5672906766
59 2 2.9674116746 9.1493297692 0.9813196538
60 2 15.1890670763 7.7194637676 8.8907558705
61 2 5.8691081053 12.1759334911 4.2786290146
62 2 4.299273537 15.5726882613 14.1962156904
63 2 0.718042962 4.9655166725 2.5715288258
64 2 6.7885358088 10.0523649075 5.3573741683
65 2 16.4056917516 12.0979447478 1.9703431474
66 2 4.5589370012 1.5761320603 3.0037191907
67 2 4.2179599841 5.0370161887 2.548892178
68 2 2.3439962124 1.0649676202 8.0096878306
69 2 1.2966894109 10.2747561141 10.4831738239
70 2 2.2242706724 -0.17250628 2.655610445
71 2 4.0979073562 9.6534341544 10.2773503577
72 2 11.1948961267 12.207527062 11.2679636191
73 2 15.1101634326 7.3004043284 11.5574564491
74 2 1.0202047353 15.7726678207 4.8458092925
75 2 15.6027687883 14.1809364008 0.6796007815
76 2 11.2958839797 6.617835166 4.660081703
77 2 11.9614974535 2.9447622408 9.2325736234
78 2 8.8413723421 11.6074265909 5.1302428531
79 2 8.0307498565 9.7913601729 7.9743153893
80 2 9.2962536807 2.3378333728 10.0072347941
81 2 14.9736133543 4.0073378121 3.8538365546
82 2 5.7959850567 7.4312062052 3.5986382503
83 2 2.7630987263 3.2659870381 4.274346769
84 2 0.4813350075 17.658607771 0.5846870561
85 2 2.6628713352 6.6334681448 0.6379352462
86 2 9.3149083702 12.9315483077 7.311491429
87 2 2.8244490633 16.7290440208 10.1655051626
88 2 14.6726244046 2.7826185877 7.9964763254
89 2 15.0282832543 16.7899319171 2.0892471137
90 2 14.3887161653 8.7179152338 6.4511076019
91 2 11.9880104814 10.9627010392 6.1558717721
92 2 18.1167111352 16.8571209825 7.1766729739
93 2 2.4544121805 6.8973133608 3.695959951
94 2 10.578121879 10.626572732 8.9674063858
95 2 7.7824477928 8.2990620631 12.818044914
96 2 0.8051829864 2.6055255483 11.3429159446
97 2 3.0243359944 14.3040960132 3.6404765042
98 2 16.6489341092 14.4300055801 6.4780361609
99 2 5.7879370843 10.2709798952 12.4945189476
100 2 12.3040747147 7.8498970577 10.490596523
101 3 1.9479877127 5.4070691807 8.2692587321
102 3 7.1537794886 1.7880876232 0.8436179321
103 3 5.8836397016 5.3252623695 11.2585725158
104 3 -1.7935626678 4.4791298385 0.9515843119
105 3 7.8785298531 2.5560853771 6.6058466938
106 3 5.6404281617 13.9557297521 1.9537907342
107 3 10.0546147747 3.6864959597 1.9576628256
108 3 4.834262686 5.6237118356 8.4765131155
109 3 5.5189225493 19.0581057305 5.7259872641
110 3 16.1730986604 4.8246689258 10.6158049298
111 3 11.4939230745 17.8868326282 10.7536991215
112 3 12.5521202561 8.7957435849 3.4021525169
113 3 8.7457352123 15.1595400423 12.603113166
114 3 8.2326926435 5.439963924 3.9800409302
115 3 12.8214350886 3.3653247432 6.2708712886
116 3 3.2778031747 0.7682630312 12.5427389662
117 3 5.5363709709 -0.9665758083 3.9271902871
118 3 7.7155196272 10.7004390825 10.7624796161
119 3 7.4382771164 2.4050049281 3.7249262537
120 3 12.1330919848 13.3403380984 4.9772708705
121 3 10.8574232223 7.3549322218 12.846108121
122 3 6.3970592621 7.7067195979 6.6228975115
123 3 9.0461953583 17.418584112 2.3098563041
124 3 16.8333638625 2.0023620429 2.4552227832
125 3 8.6919737341 8.4337732352 4.6480279591
126 3 5.5889594504 10.0111371281 2.5740149657
127 3 6.2786988061 2.7746938861 9.4477827298
128 3 14.7331585977 14.0690441599 4.0059802442
129 3 14.6044962748 12.3249139588 12.6717017971
130 3 3.074716981 7.6872154956 8.0292373954
131 3 7.4357132939 1.9272468751 12.4679345652
132 3 10.6484664318 15.9110925257 6.1307729381
133 3 8.3215614357 14.6675459628 0.6901605722
134 3 3.1115588414 9.0842715026 5.3295458755
135 3 15.7110360972 9.3499813645 2.0800526827
136 3 17.0732714297 -0.2927781338 10.4144574398
137 3 2.8915567069 2.8162277413 1.4000194742
138 3 5.935665583 0.075719615 14.7092564491
139 3 8.0112499566 11.9917881011 2.0524454362
140 3 6.0328654853 13.2420513469 12.4712229432
141 3 13.2491399433 9.9646246384 12.6697350739
142 3 8.5296448246 11.9633022151 13.1783116231
143 3 0.2832330515 4.6064633232 5.0445201967
144 3 5.9764883548 16.1022125216 12.1835497524
145 3 10.3741111543 12.686529905 0.1454400211
146 3 0.3122775083 12.5409533923 12.5158179715
147 3 13.5354589672 5.1263393669 9.2266062154
148 3 9.091798901 7.2967035779 10.1309366405
149 3 0.3801387849 -0.2433992477 15.0565007611
150 3 16.5708728743 3.4498505161 13.4488877698
151 4 15.4779774136 0.1779618884 7.5045761602
152 4 15.6106047139 15.7431824606 13.9371268042
153 4 0.3482324843 7.7060568422 10.225845323
154 4 3.232074085 6.6538167572 11.1383914402
155 4 14.608346211 15.1680649887 8.8772489366
156 4 15.4427583854 18.4056186709 0.0175445998
157 4 7.1746476243 4.7001416028 1.4253132996
158 4 13.4616015468 10.333459981 8.8046848351
159 4 11.4086841171 11.4493198815 14.0420098831
160 4 6.1375222205 15.4244803373 9.1896179513
161 4 5.8475264348 4.4306287316 5.4874863557
162 4 16.5289320854 10.4335240034 5.463773053
163 4 10.1746199504 4.3553029178 7.694687273
164 4 16.7004047467 12.4676433363 9.0314257474
165 4 10.4340517565 4.7086548175 10.73981103
166 4 5.3089950012 10.1572557521 7.7666806886
167 4 7.944743083 14.3179238803 4.9770443611
168 4 4.2123257731 17.5244921159 1.0466232689
169 4 8.6361408162 6.2531896297 6.948603683
170 4 8.3245094289 13.8156916704 10.1550163925
171 4 15.729369302 5.3816752205 7.1866603978
172 4 8.4414766097 4.9936155863 12.6129640118
173 4 10.3292861087 2.0535793099 12.5209117006
174 4 16.7719622211 6.6867444194 13.2100594944
175 4 14.3942045176 12.3167264313 6.4895108141
176 4 15.6913709024 -0.3030936586 4.7047225375
177 4 13.642596002 6.3537449843 5.0780297141
178 4 6.6418386525 12.8559237723 7.1068143775
179 4 3.1903864915 15.5220834962 8.0406599388
180 4 10.8119550324 1.1644391022 4.1142029705
181 4 17.8904878526 8.0400664325 6.9056669218
182 4 3.3204968961 12.1214714355 12.869053225
183 4 11.9173523235 15.0276866866 10.5718503473
184 4 13.432686139 5.1384568517 12.4505828556
185 4 13.9735047363 1.0531963092 13.1380761646
186 4 13.1896943503 2.6527774877 1.1295324185
187 4 1.93222621 9.5498963118 13.2289190251
188 4 12.442407667 10.64204742 0.5168220782
189 4 3.2332099624 3.0012516108 9.9825049308
190 4 4.6549287096 14.5905468879 5.8363149725
191 4 8.0266222107 17.2419452835 5.5301070965
192 4 0.8537875777 10.6778090849 0.1586427012
193 4 1.0907294666 9.7831223915 3.295520399
194 4 13.0111430734 6.2690388578 1.4894394022
195 4 0.9140113176 12.7631747514 4.1711845728
196 4 4.3514573591 12.8040617851 9.6533044637
197 4 0.0830542277 2.760425641 8.1936647002
198 4 3.4221749955 11.9625317726 1.234358765
199 4 9.668997093 16.3892034064 8.5769050896
200 4 19.0908575917 13.6241715698 7.2871322174
