# LAMMPS data file written by OVITO Basic 3.5.4
200 atoms
4 atom types
0.0 17.510057 xlo xhi
0.0 17.510057 ylo yhi
0.0 42.024 zlo zhi

Masses

1 183.84  # W
2 92.90638  # Nb
3 178.49  # Hf
4 91.224  # Zr

Atoms  # atomic

1 1 13.631811733 0.3464082866 11.0870158394
2 1 5.0819862174 17.344917201 9.6826834421
3 1 13.0107410425 3.0280064526 11.4285944758
4 1 1.3513845253 5.2934028208 11.1588508246
5 1 9.5813793943 3.1430727416 4.1832757181
6 1 2.5089020771 6.0889332131 5.8663062406
7 1 10.5806224902 9.0842697516 1.1473678243
8 1 8.6006999355 -0.3600095735 11.3087832113
9 1 13.7381930337 12.6398715565 10.5402991483
10 1 9.8343769549 16.0645214235 3.4979277343
11 1 9.9381140619 7.9677859678 5.8719979711
12 1 8.1555407058 4.6787089429 9.3890222515
13 1 18.2460316612 8.2183998843 0.8740651606
14 1 4.4302564678 6.9299402002 1.1197496515
15 1 11.0782239904 11.1877784637 3.1288679234
16 1 11.0687506994 13.5991658076 2.2601957028
17 1 11.4629425307 -0.6744192815 2.0525597414
18 1 10.3166223102 0.8958821049 7.0564813922
19 1 14.2630927127 15.3971213985 6.4980921149
20 1 16.76181847 6.2612223684 1.7257159802
21 1 13.4597924077 11.5054686808 3.7732639394
22 1 12.7168198522 13.878786009 8.4224988278
23 1 10.0193404147 9.9701909104 10.7613974981
24 1 2.6422607724 3.7934867855 6.5206110955
25 1 6.3463380551 17.3912866336 2.1050199816
26 1 -0.5147294878 15.5798283373 2.9651823422
27 1 0.7087445965 1.5890394238 5.8491255686
28 1 3.2268480334 0.8231089072 6.3515418197
29 1 14.730108696 10.1321517585 10.9260752659
30 1 15.4701192502 2.4226606688 11.4467849844
31 1 -0.407661968 10.4630641699 12.0163719768
32 1 3.2984387769 14.994866186 10.747354338
33 1 13.2228298569 0.3982049613 6.2778657631
34 1 12.5766900178 -0.6927425056 8.6056650545
35 1 16.6172284739 10.2466752357 7.5312815717
36 1 13.3928215176 12.7595242547 1.1970385114
37 1 15.8513499623 2.584007089 5.9297687842
38 1 3.5289695336 11.9201339712 7.1248968845
39 1 10.6850619256 5.9027240879 2.7074201537
40 1 2.197177011 13.0724189926 9.9549149141
41 1 3.6593888156 12.4142423901 3.8770825505
42 1 7.9930135824 0.4493982394 8.870143939
43 1 -0.5906593986 1.4017121063 13.2515502098
44 1 1.3824014901 16.204975369 12.637646388
45 1 14.0981288898 1.4324807784 4.0154957386
46 1 12.4589093198 3.6854194414 3.1299000329
47 1 0.589302194 14.8888597756 10.1307462718
48 1 -2.1190909118 14.8727921971 11.7273825943
49 1 8.3159541902 7.0086204157 2.4270082898
50 1 7.9947274668 9.4442257443 1.11111456
51 2 5.3730895143 14.4419535675 14.5894670371
52 2 12.1936902648 7.9197635859 7.3761743496
53 2 0.1395427221 7.7174171921 3.7601843897
54 2 6.3739181458 7.5978285807 9.8873180494
55 2 12.3732007426 15.2021220495 0.3777163346
56 2 17.7377393957 13.8376496321 1.2078954118
57 2 13.2433470911 15.7390590173 3.9439028117
58 2 1.4947726311 10.2347862572 5.5566389489
59 2 3.4258226906 9.1872651325 0.3979979575
60 2 14.9188981033 7.7657353189 8.3663177827
61 2 6.1306624806 11.8608944716 4.2457158178
62 2 3.5996240144 15.4304062659 13.548422034
63 2 1.0540690105 4.3635547073 2.4491746891
64 2 6.7770630444 8.5225318893 5.3267727118
65 2 15.9265393727 12.139614481 1.7251213406
66 2 4.3871132632 2.0783397562 2.5404869578
67 2 3.9086985831 4.5122406559 2.5036335907
68 2 3.0497238261 2.3608759074 8.6054919156
69 2 0.8110401005 10.3498078955 9.4114256662
70 2 1.7471079613 0.0019835393 3.4281590693
71 2 3.3619579095 10.7797853805 10.0705183154
72 2 11.692932927 11.7722354498 11.2333787076
73 2 14.4051920783 7.2125078696 11.3885401406
74 2 1.7783788219 15.9294006911 5.6582248248
75 2 15.3148309595 15.3069547608 0.7053047611
76 2 11.5552688588 5.8374047463 5.2274473068
77 2 11.8820576518 1.9264914913 9.0770898662
78 2 8.9824258319 11.5749599685 5.6860426116
79 2 7.8116650739 8.9091621775 7.7450904384
80 2 9.4079739729 2.6009506957 10.0402311984
81 2 15.2617231318 3.9995628215 2.8798811866
82 2 5.4908952517 7.1902194931 3.2886788918
83 2 2.4697618466 2.5103247692 4.2248294695
84 2 0.480098097 17.0818702685 0.8567155522
85 2 2.1229135324 6.2060047538 0.3723002815
86 2 10.3450707247 13.4982408157 7.3757351988
87 2 2.3391261403 17.3388967181 10.2135230458
88 2 14.5068339319 2.3740863699 9.1467261557
89 2 14.7693271964 17.1848523419 1.9043604245
90 2 15.0055263087 9.1041504952 6.1403010396
91 2 11.5695143408 10.6280297438 5.726020463
92 2 18.1802106565 16.8727635919 7.9409966609
93 2 2.6561150797 7.4330339049 3.260085342
94 2 10.2337873085 10.3208217472 8.3804252395
95 2 7.8901794691 7.8277816806 12.6763114097
96 2 1.1364067266 1.9311017142 11.2938495626
97 2 2.4070196353 14.7479955694 3.2499520949
98 2 16.4251249382 14.1354760904 6.0693414144
99 2 5.2095800767 9.869125663 11.5441936747
100 2 12.1529135444 8.1661346405 10.037696731
101 3 1.6757476501 5.30047023 8.582971254
102 3 6.6078180125 2.0357414646 0.594210535
103 3 5.8356034868 5.1520989371 11.3153334922
104 3 -0.9330608588 3.6660221505 0.290995188
105 3 8.144171776 3.4970859961 6.8119437362
106 3 5.3880726949 13.8540836961 2.3943922027
107 3 8.99409646 3.6195660432 1.4435941598
108 3 4.4489321693 4.9463468372 8.1148272559
109 3 6.0625322496 18.0664789841 6.8954273539
110 3 16.2880021059 5.0208610599 10.4017977098
111 3 10.9627048914 17.5718638241 11.6572104989
112 3 12.3096591972 8.5173131919 3.6329138652
113 3 8.6945245992 15.4889236507 12.9517972202
114 3 8.3291448663 5.4495440263 4.4723298175
115 3 13.0941743629 3.52414919 6.1026458546
116 3 3.7222943958 0.9992287377 12.0128848253
117 3 4.9922748412 -0.6993735642 4.2673132121
118 3 7.6110448215 10.8208839357 10.3428460224
119 3 6.9751077425 2.1205538771 3.58958502
120 3 11.7563371936 13.395216193 4.9529103982
121 3 10.5530087801 7.0327757144 12.9853496021
122 3 4.6815464476 7.4112105956 6.5912778134
123 3 9.0319176578 18.2760419728 1.9379796245
124 3 16.8226151389 1.9010243391 2.7860281469
125 3 9.1021448933 9.3246296036 3.6467385005
126 3 5.6965505209 10.0581803476 2.2189205705
127 3 6.1705136193 2.5550918564 9.0300196243
128 3 14.8686402124 13.9062781993 3.8136124426
129 3 14.5974458504 12.0300416223 12.9074879551
130 3 2.4789539262 8.7129647905 7.4199175514
131 3 6.1509914817 2.158434434 11.6938335744
132 3 11.208522278 16.0166571574 6.1632675758
133 3 8.761395682 14.9418977382 1.6134341558
134 3 3.8585144095 9.6446969861 4.6876658364
135 3 15.5810668236 9.1131291271 2.4134034401
136 3 16.7555398888 -0.4964355055 10.8286451434
137 3 1.6307974077 2.1925913022 1.0833736771
138 3 5.2722254574 0.7839231507 14.6879612074
139 3 8.5424823229 12.1003959807 2.3191310009
140 3 6.3773243772 13.6828575764 12.3125953706
141 3 12.7397615289 8.9462855996 12.4998190145
142 3 8.9913892301 11.9832684078 12.8051565734
143 3 0.2618842647 4.8481035106 5.0837117791
144 3 5.9683785719 16.5199688623 12.1008326525
145 3 11.2812051238 11.7324515497 -0.1513843159
146 3 0.7952652901 12.8150552993 12.3323727055
147 3 13.5963834595 5.2389390142 9.3475176682
148 3 8.7906907078 7.3032631954 10.2565841981
149 3 1.8690880963 0.5007836029 14.272938487
150 3 17.6312722957 4.007999342 13.3232145775
151 4 15.5211734985 0.4009169189 8.1223436686
152 4 16.0372775258 16.6427432535 13.805453005
153 4 0.3151831272 7.9464350798 9.979794803
154 4 3.6022540249 7.34200157 10.300019364
155 4 15.1145411219 14.9817476513 8.9968131
156 4 16.1506871883 18.1144082125 -0.4889996688
157 4 6.297063529 4.6674601321 1.4038882037
158 4 12.9864390095 10.3439558594 8.5604325221
159 4 9.8601424784 9.5200957707 14.1716858614
160 4 7.0370411643 15.6267468852 8.9412611542
161 4 5.2764219177 3.954852817 5.2079637197
162 4 16.168597175 11.2100538827 4.8721499357
163 4 10.5400354038 5.4976257674 8.0854478573
164 4 16.3909748989 12.5178788143 9.872024255
165 4 11.2829078017 5.1312654713 10.9863616356
166 4 5.4493097418 9.9305947181 8.315749463
167 4 8.339416616 13.8324491452 4.7228685007
168 4 3.4982362317 16.9541305505 1.1541399919
169 4 7.4087961338 6.4196255231 7.2653835367
170 4 8.7725555418 13.1204418998 9.9999133728
171 4 16.0995131712 5.1331709157 7.4031941006
172 4 8.5310778477 4.5221951233 12.7369125391
173 4 9.8577479782 2.2275786724 13.476118061
174 4 17.5187306067 6.9167782406 12.5045105738
175 4 13.9860988448 12.366865604 6.7193106533
176 4 16.1749804663 -0.3761083199 5.0757507526
177 4 15.573347515 6.3000642274 4.4358193663
178 4 6.5176645074 12.1705193815 7.1884833989
179 4 3.2189467952 15.3806195706 8.0104375387
180 4 11.1781059082 1.1128479955 4.2671673888
181 4 17.5520590741 7.6519567195 7.020025152
182 4 3.9478964216 12.1648000715 12.6475392578
183 4 12.7747622067 15.1014376459 11.6257135109
184 4 14.4955196335 4.861118736 12.7477698598
185 4 13.6610276133 1.2843512994 13.7063957131
186 4 13.7212270141 2.1054561806 0.9864007757
187 4 2.283517176 8.8225723192 12.3669500527
188 4 13.1846679134 9.8427747782 1.0600394309
189 4 3.5045892306 3.4828757093 11.3185197518
190 4 4.9861431695 13.9649057224 5.9826076606
191 4 8.2401636595 16.9286595461 5.4321714252
192 4 0.1761144023 10.7249272475 -0.0988610398
193 4 1.1971499898 10.2850838959 2.7640521163
194 4 13.8520752926 6.3494105448 2.0634758957
195 4 0.6289714033 12.8079933182 3.8632419461
196 4 5.3633994487 13.2521740859 9.4111529304
197 4 0.140968391 2.5411942993 8.6673478817
198 4 2.716275258 12.6630669539 1.1805209782
199 4 10.1120139673 15.6309799415 9.0884913977
200 4 18.2902174145 12.8064384251 7.1026544218
