# LAMMPS data file written by OVITO Basic 3.5.4
200 atoms
4 atom types
0.0 17.563496 xlo xhi
0.0 17.563496 ylo yhi
0.0 42.15 zlo zhi

Masses

1 183.84  # W
2 92.90638  # Nb
3 178.49  # Hf
4 91.224  # Zr

Atoms  # atomic

1 1 12.1900002507 15.2840984637 3.698134782
2 1 2.8918102966 1.1402383187 1.6685090145
3 1 12.7465969232 2.148995077 3.8409335025
4 1 17.762422439 6.9308646391 10.763379321
5 1 9.0126201549 0.3246789627 5.2915131075
6 1 5.8922473032 10.2692410479 1.007544327
7 1 14.0287179048 4.4008346099 3.3842239215
8 1 4.8254753319 0.2179359376 4.89119559
9 1 14.9155996323 7.3267769264 11.9639112165
10 1 8.4516062631 15.1120239756 10.7170535205
11 1 8.2573413517 13.7775757192 6.28385688
12 1 2.8421979869 3.8989167887 11.5545529455
13 1 18.2659206235 11.4479465843 12.1176036045
14 1 5.9924073543 5.3699449373 1.729538421
15 1 10.6578460426 6.5897035649 2.091697122
16 1 8.360822133 1.2230934086 11.4406059
17 1 15.9999438814 4.4216002824 1.7477779905
18 1 9.9560842655 15.2021640523 4.309166472
19 1 0.2081885486 15.3042239469 6.86728875
20 1 18.5640495518 10.6690271398 5.448651258
21 1 15.313767775 7.9610156675 9.4189608135
22 1 13.8820574442 9.6944705479 10.975002669
23 1 16.5927830035 9.2905521167 11.7402607875
24 1 7.1335645952 3.6122745624 0.608388042
25 1 1.5997636565 9.0224425401 10.4505365415
26 1 16.5619956001 17.6127883028 8.345099784
27 1 0.3796484899 15.1517582239 9.292219557
28 1 3.8224599048 2.2426576884 5.965210467
29 1 2.9818602725 13.4168002595 10.4932007715
30 1 15.0504860522 3.2891884332 12.7817872875
31 1 5.1125682375 17.0975898441 7.307623899
32 1 15.6522811522 13.2261799491 8.2877391135
33 1 13.5390337612 12.5009345483 5.665427022
34 1 8.3424169943 5.1033862174 7.556804583
35 1 12.4228135232 11.5472946751 12.3496031055
36 1 10.6016646342 9.1614365347 2.1517267305
37 1 11.5725794352 8.8119343806 8.9534578995
38 1 1.2309021389 2.1475267687 3.837079728
39 1 8.3725775565 4.4595941639 11.635366719
40 1 4.0411638941 6.4295109575 7.0428692115
41 1 6.1266161745 11.0743787523 3.512196801
42 1 6.8107217204 14.7640765422 8.094954708
43 1 12.9145901818 1.8880038097 12.791312766
44 1 9.776534051 15.7422845849 7.057455219
45 1 9.2196948266 3.4745526918 5.844720477
46 1 8.4696401096 16.6580306886 3.2314554615
47 1 14.6743685275 15.6875734167 8.712392355
48 1 14.0634883578 17.3056461396 4.4835557745
49 1 10.0902054438 2.5335081284 3.6343217895
50 1 17.6251428172 6.3369827722 1.718023884
51 2 8.1760204332 10.7905068163 1.323346458
52 2 12.5229423114 4.2748771201 11.486428008
53 2 16.4070377927 8.9703367408 5.954700786
54 2 8.1504613313 7.0963443857 12.0670168605
55 2 11.5419606413 4.7102419371 4.307945808
56 2 -1.0104526894 15.2399564805 4.1713751715
57 2 14.7115118088 1.9936369975 5.46505941
58 2 11.5697687489 17.6852661767 5.351460945
59 2 2.8502954611 12.4302418282 12.844805331
60 2 11.6669616231 9.6730448391 6.1714061595
61 2 9.4809239036 7.1810095695 4.3418559045
62 2 -1.1158723051 16.0264744203 11.8320601155
63 2 3.4818738594 15.7453588992 1.142033175
64 2 8.3736808954 5.256509342 2.4883880535
65 2 10.868044382 11.277516742 0.4711851555
66 2 11.9996901116 14.4654075363 12.2761786485
67 2 6.7355907048 13.2840572887 13.161647724
68 2 5.4296516907 5.3596643205 11.1705925785
69 2 2.0530430638 3.8465761655 8.809682985
70 2 15.3722064439 6.5108266069 4.7872220775
71 2 5.0045880397 13.6069273869 3.1595728515
72 2 15.978521334 11.9669127641 13.0328706225
73 2 20.1316291557 8.984792025 -0.9192539865
74 2 1.1555723046 3.2494090467 1.472914047
75 2 14.7026868546 13.1977156693 3.086164833
76 2 4.318472703 8.5492111769 9.535531275
77 2 10.6058793463 16.6171897645 9.7715126865
78 2 13.2066294948 14.0609920582 7.597237392
79 2 9.4873960519 14.5059695522 13.2366751455
80 2 6.7837499865 3.154228071 9.87809697
81 2 15.2220717482 4.8166746153 10.3950106605
82 2 11.2086102294 6.4226364295 6.601033101
83 2 2.7722806951 5.4700366665 2.0511433425
84 2 17.0515325617 13.5360917 11.128169868
85 2 3.7904112668 13.0441167495 1.077835353
86 2 14.185021076 10.1391517457 4.834941357
87 2 5.629711502 4.2840129482 8.0592996015
88 2 12.6993184509 6.2543744495 9.0203482635
89 2 12.8571680879 14.0877064868 1.3697346405
90 2 12.3014329049 7.371056783 11.5541365035
91 2 16.4179707177 10.9336695067 9.8253643695
92 2 3.4944235042 8.9408428889 6.669611994
93 2 4.667018876 9.2836140088 4.284591336
94 2 9.0428896108 10.5579151951 7.5987155925
95 2 14.2102484035 6.4065131402 1.48135332
96 2 6.7081874358 6.4989835415 5.9735186535
97 2 16.4599443117 12.502112532 5.4322089645
98 2 1.6007292975 14.6010690333 2.3260675605
99 2 0.2870872853 0.9443802225 12.712702173
100 2 3.0886818065 7.1779621273 11.8799197545
101 3 3.6444675724 15.0161648734 6.5964121965
102 3 3.0975067607 0.4898351897 12.572224653
103 3 19.2705485551 3.2365364092 13.8793918335
104 3 14.6106917214 -1.3888244888 2.0732569185
105 3 7.0737132942 -1.6609193983 5.420146899
106 3 17.0970151666 11.2368356457 2.993283936
107 3 4.6146071207 2.581438909 3.196705737
108 3 1.5180600294 11.0015192237 0.4730684175
109 3 16.521362979 14.032823372 1.3442246175
110 3 1.2966412506 8.7464518715 3.3229167465
111 3 16.7504719346 2.9358967791 7.9072578075
112 3 5.5190425087 8.2403207433 12.7015117695
113 3 11.5089988771 11.8583329486 3.2857969275
114 3 6.6056700122 0.0449258421 9.8539361685
115 3 9.1587863788 1.7206993915 8.229299403
116 3 14.5085438338 14.5311178439 12.9429950205
117 3 7.4844869336 1.679961565 3.3348721725
118 3 11.0692210561 12.4325674107 6.1297906215
119 3 5.2202203491 2.6828157592 12.260664498
120 3 8.986634787 10.2713599081 4.9152038085
121 3 13.9717947899 7.4718064408 6.696253323
122 3 10.0020549599 5.5703098266 13.556536743
123 3 6.8412353089 13.2986618625 0.9811318725
124 3 -0.0524872784 17.1968755845 2.219858412
125 3 13.7880370643 10.7779197612 8.100966984
126 3 8.9163778172 7.9618891001 7.255460745
127 3 6.7069237423 1.6530999542 6.924060585
128 3 14.5977739458 14.9762690409 5.778398295
129 3 16.3460049954 11.7048666333 0.1602142575
130 3 4.317538325 1.5066026585 9.2256381525
131 3 3.8803251257 4.8780279464 14.0065238205
132 3 12.9669639999 17.89438682 7.9539785535
133 3 10.2930661059 13.6952975902 8.7777471945
134 3 4.5272440083 6.5496431625 3.796211088
135 3 2.6500598391 6.1795140874 9.4648216995
136 3 13.428596079 2.5785932714 9.738320826
137 3 5.45434983 18.990149449 0.152958135
138 3 10.8792209127 1.8176720194 10.3628114325
139 3 2.6068206196 11.3749316188 3.021276594
140 3 7.7590222909 13.194133243 3.573462669
141 3 13.4465013607 9.1610053509 13.396263897
142 3 10.0952208757 14.2362683716 1.867596531
143 3 14.3217648356 4.4734413998 7.7875400055
144 3 4.2072111172 3.490955592 0.189004815
145 3 4.4876309482 10.8405826266 11.2302803505
146 3 7.4295330379 10.0829373179 12.8687587545
147 3 0.6785863929 6.1787590327 13.087291752
148 3 14.2788222635 12.7769513865 10.3855589445
149 3 17.0874862674 5.845342582 8.334130668
150 3 10.0392414475 7.2348060308 9.8474231505
151 4 16.044275726 2.1975665739 2.5536539565
152 4 -0.2931870875 14.0094760411 13.7907419535
153 4 7.427298083 8.1748034586 2.649285141
154 4 6.7403180954 4.9748902756 13.909515174
155 4 10.3329586012 4.4250657358 9.906991638
156 4 11.7673059153 2.7782278705 6.5739277005
157 4 10.5670209896 3.9172102236 1.561176147
158 4 9.3066316729 12.4257218625 11.455635747
159 4 13.5649293797 10.3342995742 1.5667159215
160 4 3.425717918 16.160977429 9.6809534115
161 4 3.8743879615 8.1457969937 1.4849853855
162 4 1.6595989747 13.2496010466 5.1354350295
163 4 13.4292666533 3.5875383103 0.754504389
164 4 1.0186882127 12.3930577996 8.8417991775
165 4 11.9541572752 7.8053356491 0.165496074
166 4 6.4784293334 9.2883403456 6.492117501
167 4 8.8664786956 2.7076038236 13.4965526565
168 4 5.7057561707 14.8970065642 11.13015429
169 4 10.1057308717 8.8232363146 12.7808077215
170 4 7.5329811511 -0.7461981245 13.186356054
171 4 2.6658293996 9.5290543811 12.9454801845
172 4 10.6689740981 16.88004487 12.807099627
173 4 6.6772254512 6.7302094253 9.2138395245
174 4 15.7643260698 8.1770563282 2.936955519
175 4 5.6807763128 12.5842770252 6.373635537
176 4 1.8801567909 18.3571926675 7.5816372555
177 4 1.1499270457 6.7856594898 5.3753983515
178 4 8.8593558198 7.4525809111 -0.0223382355
179 4 2.5210996941 4.525270047 6.2508504795
180 4 13.424041162 -0.5879167768 11.146496688
181 4 5.9894039965 4.0242152961 5.3140051905
182 4 1.7888696423 15.2483103817 11.9756963565
183 4 14.8364964565 17.9163684134 13.599080424
184 4 17.3778651275 8.9206250218 0.402094983
185 4 15.5265497046 1.2792319621 10.978579518
186 4 11.2762137062 -0.2006539844 2.3056543155
187 4 11.5682668944 11.5146780336 9.211305888
188 4 9.0083376477 11.9864156214 14.3266994355
189 4 2.3039822154 6.7246558478 -0.338069133
190 4 2.517237657 16.753586645 4.1743357875
191 4 5.8149159328 16.6015946095 2.4560303415
192 4 3.5806499071 11.2051969396 7.6977436455
193 4 1.0227838443 9.0509528362 7.8323918205
194 4 12.8825872088 7.7877178819 4.1076991665
195 4 17.136381284 18.2276906886 5.540405907
196 4 7.046706609 9.3270847152 10.1120425365
197 4 -0.3622126805 4.0173130178 4.9297919235
198 4 6.5174427758 12.1146774418 9.166749123
199 4 0.9765321339 0.5685201787 10.261843215
200 4 17.9505548802 3.9217560076 10.945957104
