# LAMMPS data file written by OVITO Basic 3.5.4
200 atoms
4 atom types
0.0 17.50115 xlo xhi
0.0 17.50115 ylo yhi
0.0 42.0 zlo zhi

Masses

1 183.84  # W
2 92.90638  # Nb
3 178.49  # Hf
4 91.224  # Zr

Atoms  # atomic

1 1 10.7011201703 0.520012895 11.60344122
2 1 4.5253509357 16.9802781485 7.5203625
3 1 12.6020354043 1.2538023373 13.06777458
4 1 3.4542921064 7.8852551399 7.85569302
5 1 8.6680905049 1.0709508471 5.59699812
6 1 2.1554169574 6.9354995815 4.86573822
7 1 15.005211592 5.712573823 1.2247263
8 1 7.3719894632 1.6932241867 9.53559012
9 1 15.6109979732 10.6822443049 11.16070872
10 1 8.4279344743 14.0808192252 13.75849356
11 1 10.5212874535 9.263937283 6.34725294
12 1 8.6747321914 3.267144784 7.10532018
13 1 16.0018464308 12.4630398709 13.8656259
14 1 6.9875171995 6.6939144069 13.8873168
15 1 10.0227901222 9.077511708 2.80702464
16 1 8.2959677528 16.4667875821 1.5776271
17 1 0.020362238 0.0350376523 5.46066276
18 1 13.4092059435 0.048789706 4.72858806
19 1 15.2117052107 15.5971960412 6.61709328
20 1 15.7541055768 8.7691232438 2.0097504
21 1 5.1272963395 13.9012357247 3.13204794
22 1 12.7351162491 12.2771505312 3.80978682
23 1 11.3261067131 3.4397304496 12.93437082
24 1 3.8026482969 5.6555447507 8.34724212
25 1 1.3000440509 16.0835052216 0.62466978
26 1 0.2279908063 14.6035061209 4.70573166
27 1 2.1339171446 4.3830422596 5.1665439
28 1 5.0976201645 15.9889144811 5.29739364
29 1 0.5945299915 12.0659596038 10.4209959
30 1 16.57457839 0.1497463148 0.88460568
31 1 16.0626641521 9.643742865 13.33605252
32 1 2.4056284488 16.0918086422 9.21318006
33 1 12.9436179497 16.7581551278 7.31699976
34 1 12.1003752653 15.944947742 10.35849528
35 1 16.0795172346 14.0683202539 8.38955544
36 1 9.8783023779 11.2483774555 4.57716882
37 1 12.7057766212 7.6013341584 6.17577576
38 1 4.8917578122 14.6685997232 8.35460346
39 1 13.3201063638 3.4047411004 1.1373033
40 1 2.9138072412 10.7481296593 9.9619695
41 1 2.0853178512 10.0269188185 4.06943964
42 1 6.4398061095 1.3574791499 6.76148508
43 1 0.8830912279 1.3031307287 13.57560246
44 1 0.8631899702 14.9331612825 10.48316178
45 1 11.8363394405 2.0228410208 2.71558728
46 1 9.0162464823 1.4653564135 3.01120848
47 1 0.2737620889 15.8581628644 7.6491891
48 1 17.2820989562 16.8067887235 12.45152748
49 1 5.5898253072 5.8277103887 2.21145582
50 1 11.6879398391 9.1001459453 0.6232338
51 2 8.9536522192 6.7689945154 1.68443394
52 2 15.8904901136 7.8407255638 8.39597136
53 2 0.0728557123 10.6478454446 1.73892558
54 2 5.6798704741 6.3788972071 10.31265186
55 2 15.8619590388 1.5316407941 3.81578988
56 2 0.7559560488 13.1549737379 1.43449614
57 2 15.9142384741 16.3103955556 3.53470404
58 2 3.8423710071 11.5732842051 6.76376862
59 2 0.9138528242 10.7250948206 12.7842162
60 2 14.0520168826 11.9493032383 9.4155873
61 2 7.2990105427 11.884482829 4.27819434
62 2 2.8215611297 16.7588654995 12.33239826
63 2 0.0827312613 6.0054714943 0.81917262
64 2 10.7587155799 6.7870921046 8.8292547
65 2 14.2119159645 10.8036294811 1.36381308
66 2 7.7136329126 15.9591637511 4.2884814
67 2 2.5473515364 5.5260778934 2.33775864
68 2 2.8195912002 2.2837261136 12.0749727
69 2 5.3008529689 12.2129864149 9.34517472
70 2 3.8008157515 0.4611222253 4.52083548
71 2 4.0035751498 11.8785401385 12.45034434
72 2 13.2982033245 14.1531366021 8.5397886
73 2 11.810765535 6.3883026752 13.78139028
74 2 5.7161388073 11.7395559808 1.02489786
75 2 13.3990384754 13.7189640477 0.33503946
76 2 6.3915981417 6.32293693 7.14928536
77 2 13.0251881847 0.8345796152 10.28813604
78 2 8.6314415217 13.9597532699 5.5462575
79 2 6.3278486277 11.1192303443 7.08585486
80 2 11.8014116954 4.9955443571 6.59653554
81 2 13.3158878866 3.0836973797 7.7677005
82 2 7.692865873 6.7210441646 4.1938428
83 2 2.0499588777 5.7285793248 13.0252374
84 2 1.2100725638 13.9325834346 12.8177112
85 2 1.2657078446 8.2637745624 13.9370301
86 2 10.7941023801 14.9554430467 8.07473394
87 2 1.8870982512 0.4706722529 6.99641796
88 2 11.2707635265 4.4469466587 8.7260922
89 2 13.518117 14.8800890452 2.78859966
90 2 15.091895313 10.4068028057 3.8650458
91 2 11.0332809715 9.8727674642 8.7892203
92 2 0.4363069947 2.4132295482 6.4310379
93 2 0.3618826543 8.2937305808 2.91702264
94 2 7.565015947 9.0925905238 5.49166926
95 2 9.2880444171 5.1365798245 12.7307166
96 2 4.0299749345 2.3101495249 6.19863594
97 2 16.1002447216 15.1947583221 0.49843458
98 2 14.9884346396 13.0505261747 6.2744325
99 2 8.0227317484 8.0863566542 11.21201004
100 2 11.6295819045 5.9310823312 11.3512098
101 3 16.5779519117 9.025450162 5.69089668
102 3 3.3742019437 0.9032859799 0.88195338
103 3 4.4360562181 3.8825441969 0.50664936
104 3 0.2524596891 3.3954325888 11.86042872
105 3 7.4514044315 16.3457499787 7.07338716
106 3 3.4767091544 14.0590257431 0.80664402
107 3 4.5507134272 3.2815524307 3.05147556
108 3 3.4977859644 4.9579163595 11.01366294
109 3 7.957985544 13.7777904882 8.22380202
110 3 14.1730326095 7.989534167 13.60939146
111 3 8.0939246765 16.718209803 12.78958968
112 3 13.593462776 9.7808325232 7.1278032
113 3 10.4222967488 13.8854778643 3.48773628
114 3 9.3248206337 6.4697362262 6.74088198
115 3 13.9407575217 5.8568048255 8.5654968
116 3 0.7688305948 0.7002416629 9.93596226
117 3 5.7884404332 13.6516392238 6.0318993
118 3 5.5454283899 9.159781814 9.7606971
119 3 6.4437909463 1.4151968925 3.80238138
120 3 10.9465055445 15.2511165754 0.17978184
121 3 10.1936580499 4.1402416301 1.60817664
122 3 4.6936328935 5.9321793033 4.80844224
123 3 6.3443679632 1.5250185339 0.60361728
124 3 14.8278397119 1.0887313155 6.72199374
125 3 11.7804370921 12.2815275688 6.650385
126 3 10.8030442427 6.7428645984 4.31454744
127 3 6.8955327302 4.1284096277 4.87260018
128 3 15.9799257154 13.3748405103 3.19171482
129 3 11.2716949377 11.7794064494 1.6033521
130 3 1.7159627309 9.588514311 7.1333661
131 3 8.3284852395 2.2438959463 12.39704676
132 3 12.9448687569 14.7819723479 5.52980652
133 3 12.8579545458 13.4852286639 11.97395304
134 3 3.1284852727 10.8749443922 0.7580601
135 3 0.2598507748 11.857821052 5.83686264
136 3 15.2887564737 1.4699341893 12.03051276
137 3 1.6400670688 3.351058773 1.11625332
138 3 9.8196836761 3.6639362821 4.4756376
139 3 6.8091684052 12.4103253571 12.09730326
140 3 8.0927844766 10.8558578131 10.2946536
141 3 11.1801971754 8.7720034081 11.36670444
142 3 8.0518888394 8.1510883328 8.44234398
143 3 13.9306161303 3.1798422223 4.5751608
144 3 5.4854570242 0.637057786 12.070422
145 3 9.9221292828 11.8251026521 12.81452844
146 3 5.7000429996 14.9008664104 13.05022656
147 3 16.3171320982 5.1711153688 10.02838536
148 3 8.3849369489 4.9596297221 9.73703766
149 3 1.5252885767 3.6058713167 8.62573488
150 3 16.6229961965 7.0683655121 12.3054939
151 4 13.1492218099 3.6430260831 10.99659582
152 4 12.8802821629 10.7257677399 12.3206286
153 4 3.4671253497 8.3988984913 11.20005054
154 4 4.3800192859 7.4158888228 13.72052388
155 4 15.2524851653 16.0469020914 9.9184155
156 4 13.808438152 0.1782721393 1.47867342
157 4 6.288390885 8.4293996706 2.40374274
158 4 11.0647027113 12.4448453254 9.91667334
159 4 7.4725360201 3.886701595 1.88849472
160 4 4.5328876309 1.5919467818 9.58402074
161 4 16.9701679092 4.3595648169 3.35950902
162 4 0.2164881754 9.3639971329 10.25111178
163 4 10.0448161945 2.9192816009 10.3997817
164 4 15.6102280976 13.9643691982 11.35609272
165 4 9.7308614896 1.2679614677 0.26687808
166 4 4.3263875368 8.699989501 5.45607216
167 4 7.6842777086 14.0620404912 2.37343974
168 4 2.363279691 15.9380587643 2.88042342
169 4 6.0554794554 3.9530017266 8.0435229
170 4 10.4485286975 16.3325917391 5.8098453
171 4 0.7077706576 6.5081424998 6.98743626
172 4 6.1549302653 3.8683262626 11.43120636
173 4 9.6422531671 0.2230882091 8.96250012
174 4 12.1539826878 9.7176300952 4.1316555
175 4 8.9597401692 11.2973773503 7.31568894
176 4 15.920506861 2.1289478681 9.05842182
177 4 15.3415128153 6.884146307 4.12842192
178 4 4.6718352111 11.0608806351 3.76049394
179 4 2.4888653183 14.6625880782 5.86228524
180 4 10.8469702041 17.0175426472 2.89983078
181 4 14.3045457012 8.4475973663 10.31798922
182 4 5.2102866178 16.6677797143 2.28712722
183 4 13.9282042969 16.1870064977 12.72721338
184 4 14.9431171617 4.6839288558 12.70338258
185 4 15.8704460465 2.8118635675 1.21874298
186 4 1.003257624 1.6243258344 3.30178422
187 4 5.7622448869 9.5885633142 13.21947312
188 4 8.9907299806 8.7866816226 13.51880418
189 4 1.3458667869 6.2995020151 9.84732294
190 4 8.393597218 11.0361142327 1.59734022
191 4 9.7180182707 14.4960971881 11.18473062
192 4 3.3690487301 13.6137999874 10.74806166
193 4 2.3753794611 12.8866849587 3.59103444
194 4 12.8425899362 6.9815953354 2.21031258
195 4 16.2555226249 11.1145006585 8.15305134
196 4 6.1422461318 15.9566372851 10.32318756
197 4 15.9606951018 4.3976369936 7.08026382
198 4 3.1240814583 8.1093319889 2.43325488
199 4 11.3790840942 1.5493446074 6.26357844
200 4 1.7641705236 13.0959147071 8.43015264
