# LAMMPS data file written by OVITO Basic 3.5.4
200 atoms
4 atom types
0.0 17.520744 xlo xhi
0.0 17.520744 ylo yhi
0.0 42.048 zlo zhi

Masses

1 183.84  # W
2 92.90638  # Nb
3 178.49  # Hf
4 91.224  # Zr

Atoms  # atomic

1 1 10.9356259811 -0.6358926265 1.8119013005
2 1 4.4760106283 17.4744368488 5.7462233357
3 1 12.9403554666 0.6240543854 1.5158064326
4 1 2.0409644866 7.821388023 11.1869477683
5 1 9.496450168 2.9548363316 5.7889108858
6 1 2.1613384806 6.9984293914 5.3938539475
7 1 14.2787309353 5.6037403241 3.7810860883
8 1 6.4847257327 16.3708996211 9.6324252192
9 1 14.9968792499 13.2396570801 11.3025621082
10 1 6.3247245464 14.0346375365 13.1759514605
11 1 11.0289905217 9.8168131175 5.4489641587
12 1 8.2131124372 0.9629127579 10.2215765664
13 1 17.3006512172 9.5610060501 2.6086793645
14 1 7.7920003039 6.619798054 3.6190570637
15 1 9.9156705865 9.8172630502 1.7849140531
16 1 9.8563089042 13.9997397186 0.7892682912
17 1 16.4931660306 1.2553847854 4.3913816928
18 1 11.8342393606 1.5614944344 6.0347432563
19 1 14.2790247582 16.0089842999 7.9758160128
20 1 17.1389347501 6.6001299676 3.2009149325
21 1 18.4872383484 13.8838655774 5.4242079782
22 1 11.9183193085 11.5861449247 7.6631020934
23 1 12.069634586 5.7448408326 12.4563684787
24 1 4.173228519 6.0870652904 6.6775541587
25 1 0.5568484908 14.62875703 0.9204664608
26 1 16.502624429 16.492374969 5.2691862528
27 1 2.2983471945 4.5291391307 5.6873140877
28 1 6.2215240353 2.0385550339 4.3171997702
29 1 -0.4775164892 12.8968300839 9.2609723462
30 1 16.80115951 3.6146866483 12.0470278349
31 1 -0.1794010301 12.2304264834 12.1896756749
32 1 0.9078552215 16.4989878234 9.1210412275
33 1 12.0026955323 17.863477961 8.2556214854
34 1 11.4223501469 0.5693449862 10.8886571539
35 1 13.5751393804 13.5649435339 9.0095597856
36 1 12.1375183582 10.6913340723 3.026657929
37 1 15.1254175602 7.081550429 5.6070431942
38 1 3.8713534586 14.6956931052 5.6679707462
39 1 12.509393171 3.3238200465 1.4465521152
40 1 4.8505636621 10.6776233893 9.5437110874
41 1 5.1563828172 10.2722808016 4.2755213722
42 1 5.9798824894 1.3948972136 8.7046075066
43 1 0.0259692468 2.1281934379 13.7666274682
44 1 0.9558002119 14.9187964774 11.2574883341
45 1 11.3408298044 1.0632475761 3.6127973779
46 1 9.2546060823 -2.364061373 2.715481705
47 1 16.9581490556 17.6265929468 7.5587915174
48 1 15.688045794 18.0248322744 12.3272172058
49 1 5.1187375714 3.1466625477 2.1644561203
50 1 12.7532286645 8.3288217083 11.9599443245
51 2 12.1448730409 8.706090107 0.6627664627
52 2 16.0011993077 8.9615614769 7.6722534202
53 2 17.0548330764 6.9203117526 0.6975872525
54 2 8.6659301088 5.9448692098 10.0434620794
55 2 15.0881491856 -0.2535733477 2.9874969446
56 2 -0.7875492081 14.2817872539 3.2872726944
57 2 13.4903389795 17.3512265968 5.7489131462
58 2 4.1065997576 12.1694224065 6.361526016
59 2 1.5897736161 9.219043177 0.652332672
60 2 13.0478373467 9.3684861877 8.6814310694
61 2 8.3565197268 9.4177475116 4.1276360333
62 2 3.0574640896 17.9819775858 10.9641762029
63 2 1.0950100569 4.4116525554 1.1007392717
64 2 9.2888743799 5.5937741745 5.4604003738
65 2 15.1366842746 10.6417910149 1.4461223846
66 2 6.5708713764 16.305883469 4.018980217
67 2 6.2270393903 5.5661770755 1.6764491347
68 2 4.1140492276 2.7038667417 9.7560240538
69 2 2.6879403854 12.2996910655 11.4870233203
70 2 3.161976554 2.2303409523 4.3680900442
71 2 7.4273498194 11.8906706984 12.9939483744
72 2 12.6443332107 13.5601673791 12.6451156435
73 2 12.6555145991 6.021173802 1.2981054355
74 2 2.5219224004 13.7078590162 3.3078665434
75 2 11.3934887509 11.8217737016 1.0308554957
76 2 10.4878600656 8.3379498407 8.1678832877
77 2 12.8400339642 3.3903212568 9.0326281594
78 2 8.7304111773 15.0078134206 5.3857109318
79 2 6.5326957777 11.8947097556 7.7906610086
80 2 10.0772374265 1.870194175 8.2194993101
81 2 14.3718992436 2.8609906714 3.3556755398
82 2 7.6811481335 4.0693641469 3.8255055955
83 2 2.4100692699 2.3772362716 1.6963374182
84 2 19.1998029771 16.9700298721 12.5557775194
85 2 -0.050806303 8.51068195 12.4563281126
86 2 8.9612256042 13.1234412844 8.1040682995
87 2 2.9593288256 1.1651256214 7.8194176358
88 2 13.9911074233 6.8769366979 7.8788789741
89 2 13.5971291406 13.010141466 2.5062222643
90 2 14.8416854054 11.8809377499 7.8000234163
91 2 10.2960904415 10.3708288544 9.5755607654
92 2 0.6683485783 2.5612282623 6.7857457651
93 2 2.7458075482 8.9103495686 3.3889254163
94 2 8.9798077549 10.755810235 7.0250573318
95 2 10.1813176542 8.1470594075 11.1349991462
96 2 4.4886406318 2.9377092787 6.4793995949
97 2 15.8376210864 13.3500412715 0.9552834662
98 2 16.7776256467 14.7186100631 7.2899706643
99 2 7.7488721165 8.9728535964 12.9520858061
100 2 14.8084191192 8.4096282556 10.6548883546
101 3 3.5163141534 9.403086153 6.4911032352
102 3 2.4348488581 2.8110917677 12.5088784416
103 3 4.2807862639 4.7213124328 11.7016909747
104 3 0.7077802391 5.7281805324 12.8031715526
105 3 7.4743012084 18.138391575 6.7091124442
106 3 3.6986441262 14.7843457921 0.941453879
107 3 5.0456610011 4.7108443139 4.3388275795
108 3 5.4752720969 5.4191983574 9.0082663891
109 3 6.5766088944 14.788152349 6.9016914432
110 3 15.3849004796 10.21342652 12.9950210189
111 3 7.1256462871 16.4558955535 12.4046523821
112 3 12.0217992755 7.1068833223 6.0415319059
113 3 12.6328159497 15.7273166144 3.5045405971
114 3 10.232443886 4.7072564159 7.9399305677
115 3 13.7924442625 4.3678405334 6.0354660614
116 3 0.1253250058 1.4010131798 10.2998859206
117 3 3.6716632317 16.5713854649 3.1967303155
118 3 7.6367270904 8.684586197 9.5191428614
119 3 8.8342170302 1.3350596679 3.3571728691
120 3 9.6667088738 12.1505052592 3.670611696
121 3 9.4663059031 5.5257416512 1.2613727232
122 3 8.065235781 7.3972349894 6.8988519418
123 3 8.6121032295 -0.1383574608 0.4716789062
124 3 16.0940531187 16.3025401607 0.2428242566
125 3 13.6697498212 9.817083813 5.879486903
126 3 11.0184199064 7.4629197331 3.1923018202
127 3 7.0869235156 3.6337672641 7.0942330195
128 3 14.3980454499 13.9200522212 5.3794289606
129 3 12.6096318004 10.5151824394 13.7165453568
130 3 4.0090041326 8.0486007106 9.4919722848
131 3 5.5507770423 1.658961282 12.1117615718
132 3 11.6133814469 15.0029440555 7.4123206733
133 3 9.2124877906 14.3689215932 12.6654012806
134 3 3.8853276536 11.0142177312 1.615442112
135 3 16.4252011373 11.8053427479 4.293184896
136 3 14.2765774607 5.1488905966 10.974149568
137 3 5.7176500396 0.6084017031 1.8011180909
138 3 10.0200162535 1.9117461963 0.6316429536
139 3 7.4307915944 10.8067132525 2.0987287891
140 3 7.973719854 10.9311701055 10.6039118822
141 3 13.1765385999 11.3849368758 10.7643779827
142 3 10.2464066925 11.2080320261 12.510815593
143 3 17.1763674692 4.0502882616 4.3482858566
144 3 4.1343014556 15.5671863002 11.8466316922
145 3 9.0347952083 11.2989306972 -0.2784014899
146 3 5.0357428583 12.0955160538 12.22398432
147 3 -0.5670813061 7.1486638141 10.0468385338
148 3 11.8141633912 6.2597823319 9.770409095
149 3 2.3085358576 5.0000965543 8.8759581523
150 3 14.9898227703 6.9986750322 13.0409071603
151 4 15.7527472735 3.6388291823 9.0087238714
152 4 14.8911149284 15.3609016158 13.1786660794
153 4 2.4199576274 10.2039167858 9.2869348838
154 4 6.529124174 6.6744920349 12.0976208294
155 4 14.1830897492 0.9131647078 10.1757669523
156 4 12.4672415899 14.8966509578 0.1627615008
157 4 5.0454696746 7.3427934824 3.4721434541
158 4 10.8147440608 13.1008631776 10.2589370554
159 4 7.4227374836 2.724979939 0.8028371808
160 4 3.9959853437 -1.2267411723 8.6473730304
161 4 2.5597605495 5.2302234671 2.5979100307
162 4 0.4910393499 11.0199605055 7.1386811194
163 4 10.698702246 3.3594500563 11.1223321862
164 4 15.9401745564 15.6764302416 10.204670327
165 4 9.6201557314 6.0899977374 12.6690094195
166 4 6.4249880552 9.3182969653 6.2962607923
167 4 6.8738796785 14.0620002081 0.8683879104
168 4 0.6040837158 -0.4978845293 2.4921622541
169 4 7.1568617702 3.5253650193 10.2689612986
170 4 12.7852154108 15.6369740517 10.6486480109
171 4 1.4704619048 7.9437218874 7.9542243648
172 4 8.1948579244 2.862268284 13.0937404723
173 4 9.6280288529 0.7332995532 12.9656513318
174 4 14.2916384674 8.1528016562 2.9025658714
175 4 11.6221745826 12.8385487307 5.4367773869
176 4 14.9787011276 1.6733330227 6.9531661843
177 4 -0.2397876759 8.7284486788 5.3334246643
178 4 7.1397308628 12.1591613828 5.0235540307
179 4 1.9118670894 16.6844571632 5.9126198861
180 4 10.0320452955 17.2795665787 5.650641504
181 4 16.2705562177 10.4368358045 9.9042112973
182 4 1.9054457368 17.3655112594 0.132104304
183 4 13.0283288743 17.5032621521 13.0429162138
184 4 14.360430515 2.7553286709 12.7613510323
185 4 15.4236978895 4.8679155061 1.736362489
186 4 16.8382495234 2.0692121309 1.3607561146
187 4 5.5763569781 9.5640760348 11.9549658413
188 4 7.8834726042 8.0764765647 1.0476751162
189 4 2.7805448761 9.4821104903 12.8995560806
190 4 5.1729670774 13.3132836266 3.1917093638
191 4 7.0983755995 13.5338717209 10.2975816902
192 4 0.6522545485 14.0490332806 13.7251534234
193 4 1.0136050009 12.0496325542 1.6801922477
194 4 11.4806553284 4.2124402945 3.6973100736
195 4 1.7593809007 11.2219201943 4.5571361702
196 4 4.6988977946 13.3504933067 9.4027333939
197 4 17.2759364557 5.4535365627 7.4649361766
198 4 3.892322285 8.0864141555 1.0607802163
199 4 9.2163665329 16.0783632924 8.9522126208
200 4 2.4289513757 13.3716587158 8.209304352
