# LAMMPS data file written by OVITO Basic 3.5.4
200 atoms
4 atom types
0.0 17.620497 xlo xhi
0.0 17.620497 ylo yhi
0.0 42.27 zlo zhi

Masses

1 183.84  # W
2 92.90638  # Nb
3 178.49  # Hf
4 91.224  # Zr

Atoms  # atomic

1 1 3.6108844004 -0.4940965326 4.0845251607
2 1 5.6177934605 3.0773565435 4.5179921751
3 1 8.4907369089 16.7198258245 3.5653443084
4 1 5.0254753439 3.1928615444 9.2646105219
5 1 5.7734728422 0.3727409981 4.0693379724
6 1 6.1218020512 5.8451008673 10.2026190195
7 1 13.8820044317 0.1425494683 10.8660394836
8 1 8.3989205518 12.4182408483 2.7321535752
9 1 15.6504637637 7.641964088 9.6920604018
10 1 9.1932777538 18.7520095492 10.2072319446
11 1 2.7230042961 11.5472061152 9.7383278757
12 1 15.1653318351 1.9353400636 9.063461541
13 1 15.4502427611 12.191279508 11.7595727553
14 1 9.0734735279 6.7752372141 8.8272221196
15 1 17.76125464 11.0753054179 1.4261103324
16 1 10.8948080948 2.2711773975 5.2184115702
17 1 2.2363501328 13.1153145816 2.5937108712
18 1 9.832649117 0.8465061202 7.7374224747
19 1 5.5936003419 1.6326389553 6.3806924295
20 1 17.1977939637 11.9316703824 3.8739009366
21 1 12.3280092786 6.2104930608 5.2189678434
22 1 15.8256789903 10.6164833583 10.3123768788
23 1 3.5613121276 16.2185549303 1.544055468
24 1 2.1665252132 1.6983575943 13.8807434922
25 1 6.3992221515 15.3720662544 11.6418989931
26 1 13.9075821689 3.7871454036 2.0657509626
27 1 1.2964622505 14.1252113415 7.351856247
28 1 16.7596551959 6.3549777884 7.69225233
29 1 19.3221993171 12.3891198053 -0.1439348451
30 1 -1.5717092149 1.8596973844 11.4724191189
31 1 14.847947038 11.5993516855 2.5499195739
32 1 16.9839868531 0.5062867448 7.043374014
33 1 10.0614225491 14.754163 3.742869009
34 1 7.6850040902 7.348832143 0.5668419681
35 1 0.8994419697 11.7582191436 5.9943154632
36 1 1.8114359004 8.9546606311 2.5903254669
37 1 8.9861313673 2.8881154012 -0.1476795444
38 1 18.1963103495 2.1447695379 2.3894487048
39 1 6.862902006 8.1818762035 9.5127595158
40 1 4.5901498646 3.966794476 6.985633194
41 1 8.069486154 10.7133608508 11.6132111895
42 1 0.5141636356 0.700514664 9.5954544303
43 1 16.948236803 4.6896635597 1.662669315
44 1 1.5751189573 17.1810553726 7.0856854386
45 1 3.6222186089 18.455142235 8.8314503877
46 1 9.6894794072 12.5168863814 4.8878031057
47 1 19.2848704704 17.6453655122 1.7323036449
48 1 13.5291837579 3.9432660025 5.1200167323
49 1 12.6538203736 12.3220309964 12.3609374778
50 1 15.6491036375 2.0734858173 2.9021170182
51 2 12.0689247151 14.57584498 5.6721229557
52 2 15.4368846623 13.6503512817 4.9039570089
53 2 6.1832078975 5.4911471955 5.3776350516
54 2 15.4844251156 4.7079407726 10.3411788114
55 2 0.1957924431 3.1111373269 10.1483747739
56 2 15.011643922 14.1481978085 9.7851368283
57 2 6.1732080892 15.4298634229 9.2354273139
58 2 16.9745600634 11.9610936169 7.7932958061
59 2 1.7183443479 8.5256580909 12.7085634216
60 2 6.8236690884 5.8602543185 7.6157246085
61 2 11.3266538784 8.2897332039 6.5929850505
62 2 11.7438302458 3.7028866538 0.8193375861
63 2 1.7916442057 1.1011423892 -0.6077829993
64 2 5.1920336204 10.3001052202 11.8563520338
65 2 13.5146947756 9.5210708023 11.0489020398
66 2 6.8527887217 12.0922253555 0.6440667219
67 2 1.8005069633 7.1037692662 8.4125538423
68 2 6.8412377811 2.7230441184 1.3599594732
69 2 7.5253782458 9.5742151023 1.4465994468
70 2 2.7641863931 5.1533032394 5.199789099
71 2 2.3289294575 8.3920746363 5.1850085481
72 2 6.8779007492 9.5149281208 3.9725950461
73 2 3.7881132975 13.7361461864 13.3080779862
74 2 0.729369285 0.2948023681 4.5784775862
75 2 14.1186397772 12.7930917246 7.2351906243
76 2 12.3894184727 6.1804828876 9.1997290308
77 2 15.6988228653 16.3857914198 3.5188866195
78 2 7.0065520505 11.7700484881 5.212897026
79 2 11.4585838256 -0.0233892715 10.8263580984
80 2 16.8308605053 17.4241801709 1.3112297718
81 2 10.7103084521 9.4291774436 1.9363734828
82 2 9.5760418192 5.2446181172 0.9131076633
83 2 10.9150441784 17.170995126 5.3802350793
84 2 1.9235096619 11.2190925499 12.2388887706
85 2 10.0976111735 15.501754522 10.6881432297
86 2 10.7614101841 13.3632538283 7.8413728587
87 2 16.9333969966 3.6288973059 7.3486885332
88 2 9.5932404815 8.2361712981 -0.1017054243
89 2 14.1176509149 2.2423522027 12.9800543322
90 2 14.8611587105 -0.9375358983 8.8478101458
91 2 14.7631926237 9.8696227345 5.1093706101
92 2 3.6371177964 1.9696609152 0.8089911582
93 2 2.76711351 11.0408235149 4.5141544818
94 2 10.8945977061 10.8044967043 11.8748337459
95 2 11.1514997948 13.8328693234 13.6787892678
96 2 0.0938832415 6.4018460197 10.618164822
97 2 12.7139221268 15.4800147052 8.7130212606
98 2 16.7295019442 15.0389188656 6.9519199101
99 2 8.6841710247 15.4447684251 13.2534224535
100 2 7.8381771324 4.1221154567 10.0687790958
101 3 3.1292515502 14.8208438944 9.487463457
102 3 4.3594157998 17.0344082577 11.1888618141
103 3 15.6138480185 4.1827960433 -0.2874017613
104 3 13.0095540679 19.4737516259 3.4330831692
105 3 4.4735460495 16.5456833336 6.6215287134
106 3 3.4644378068 10.3382592347 0.4120652907
107 3 3.1878996124 2.4251898802 4.4685929169
108 3 2.7370710912 9.5653817709 7.610092131
109 3 1.8104285366 5.9483231483 2.7074408424
110 3 3.2461987888 8.4626193532 10.6267908609
111 3 14.1754211239 -1.2213501245 6.1275636069
112 3 17.6248527869 6.2111673973 5.3944876779
113 3 6.9410008062 -0.0878616128 0.8940789774
114 3 1.938468759 2.3217261983 7.5450364875
115 3 6.524442742 0.7843246197 8.8334751207
116 3 4.4234700067 17.3538276936 -1.2074882016
117 3 8.6061883435 8.3681953387 12.2772978288
118 3 9.9774633478 10.011121845 4.2822900054
119 3 4.0061114433 13.5564874228 0.4830201354
120 3 8.1388377871 10.7209818919 8.5019984304
121 3 18.7554846636 8.3413774709 0.1755701358
122 3 8.3724984403 2.9325484798 4.3813949793
123 3 7.508706965 3.2402902837 7.2287723475
124 3 9.5391180677 15.6261369055 7.7441057844
125 3 16.9543720838 9.0126979668 12.5811679821
126 3 14.9977780005 7.2617023094 5.5135702992
127 3 8.8603527356 13.4247165887 10.7662218375
128 3 5.2038541546 10.6759047841 8.5478664528
129 3 12.3716522542 12.3151110748 9.7378933401
130 3 1.8167150013 -0.0292611259 11.7157873758
131 3 9.3081383732 5.7283056936 6.2005884135
132 3 12.6027047214 0.930533689 7.9669172949
133 3 2.087491998 -1.052373611 14.1140392308
134 3 19.3291338636 4.0963779016 0.5253095796
135 3 14.0306442486 9.5095212713 7.8310961763
136 3 7.5016802632 5.2987005324 12.6405957978
137 3 12.9737092195 14.9539619917 11.5087814637
138 3 10.4965312963 1.1001919396 -0.7120415316
139 3 6.9566536223 12.7987364508 12.8498217303
140 3 5.3973305596 9.3439805785 6.0191841723
141 3 12.0197168342 6.5673313842 1.51212471
142 3 10.3441303843 21.2985272997 10.2167748198
143 3 12.7889732859 8.6419422702 3.6522704499
144 3 2.9473815904 13.2690171197 15.4207401948
145 3 12.7858595678 10.0794391549 13.7201589168
146 3 10.853359576 -0.4927561414 13.1804830323
147 3 2.250730749 4.5088113598 8.7285119475
148 3 3.7958973283 14.0774481651 4.8109604727
149 3 9.4463442128 7.3209626839 3.0010343133
150 3 4.6169738996 7.1837605078 7.5297892758
151 4 4.1679375592 13.3314608132 7.2139089474
152 4 17.9037355646 12.3578391942 10.1942533638
153 4 4.0867338511 4.6052962676 2.1095612814
154 4 5.1234549985 3.7771734358 12.4512735402
155 4 1.224392832 14.1427736909 11.8793967924
156 4 14.3710602687 18.1483825976 0.7535324955
157 4 4.6369065582 7.9687124172 2.3132612568
158 4 11.3639219344 4.4850612205 7.2970920804
159 4 9.176244548 11.7245641706 13.9744674951
160 4 7.3875433177 13.3693811799 7.4792529546
161 4 9.5228208701 11.5093650407 0.2861395791
162 4 4.9037991163 11.9976986135 2.8040261016
163 4 14.4585280634 6.7177709586 11.6799631281
164 4 5.5750699224 12.5416729584 10.3514504214
165 4 11.2755951404 7.4635063375 10.9820216004
166 4 6.7549435115 5.1219549656 2.8574300196
167 4 -0.5538509858 1.4091890277 14.1520860351
168 4 6.6795385328 14.7426499435 3.308451765
169 4 14.1075022134 5.0549331146 7.8700251555
170 4 10.2689188787 2.0861491399 2.2988810028
171 4 5.5478480166 7.1816093976 12.7890750906
172 4 6.940385146 18.1088596467 12.0524074797
173 4 2.8844979131 2.5910655386 11.7779724636
174 4 8.4445012534 8.8876528765 6.686484177
175 4 12.056419977 12.025249494 3.3607004439
176 4 11.102351295 4.6119518817 3.5146173495
177 4 16.4239373289 9.2685220336 2.534982624
178 4 12.9198047713 14.6791275232 2.5327490772
179 4 -0.46146672 9.1698742097 6.6852799047
180 4 7.7590082393 17.7787727619 6.0240663573
181 4 0.0507970736 -2.0605231225 9.6731162559
182 4 0.8527034252 14.7553381109 4.6453762017
183 4 11.1793747163 17.016514643 1.4009943438
184 4 2.5407220167 5.5545441579 11.9696926983
185 4 17.2656571935 3.375039158 5.0232201231
186 4 1.0033421113 15.0697619597 0.517642647
187 4 15.4689497379 7.6066892627 0.6027761178
188 4 16.2579247592 14.0516440045 2.149623942
189 4 14.6496806772 1.7258075094 6.0243335037
190 4 4.6184041553 1.1166604085 14.2310730252
191 4 8.5292857988 14.9210435554 1.3826580405
192 4 0.5825024425 9.2789390952 9.854620677
193 4 12.9754619303 10.4483482235 1.3192276785
194 4 15.1432320316 6.1671952708 3.0393465732
195 4 10.5034256682 9.1428651595 9.1092137436
196 4 5.8117739879 16.293338434 14.0774076261
197 4 0.0759806403 4.3793641406 12.7895671134
198 4 12.6883297645 4.0297664319 11.0455631325
199 4 11.7044461443 10.9567258165 6.765364224
200 4 16.493614765 -1.1359698301 11.609861292
