# LAMMPS data file written by OVITO Basic 3.5.4
200 atoms
4 atom types
0.0 17.520744 xlo xhi
0.0 17.520744 ylo yhi
0.0 42.048 zlo zhi

Masses

1 183.84  # W
2 92.90638  # Nb
3 178.49  # Hf
4 91.224  # Zr

Atoms  # atomic

1 1 10.7748840177 -0.9692473829 0.8218487635
2 1 4.6159845529 16.7902717693 6.5914491053
3 1 13.3104690943 -0.3498782196 1.2334406573
4 1 1.0367972097 6.6339539391 10.7792974541
5 1 8.7307919031 3.2465651292 6.0396439507
6 1 2.6900731855 4.4915830656 6.0390561197
7 1 13.2473113676 5.3583556465 3.6902628288
8 1 5.4729742513 16.7481156327 9.3359872397
9 1 15.5554200694 14.0789998851 10.8582703258
10 1 7.7887346124 13.699620412 12.6835399469
11 1 10.9180609096 10.0081529577 7.0351383398
12 1 8.2708501218 0.949806891 9.8576982202
13 1 17.4006230056 8.6795001003 2.9329829741
14 1 8.6116063412 7.3259586755 3.4341589728
15 1 9.1860962939 9.1896356594 2.0702030054
16 1 9.7224812566 12.9022560832 -0.9103997491
17 1 17.5852746522 1.6370069138 4.7116327162
18 1 11.9941200041 2.852881195 6.7607957434
19 1 14.8535390647 16.4135953965 7.5289403808
20 1 17.5613826649 6.1247369925 2.1666451392
21 1 17.0251115871 14.4246344054 4.1004225677
22 1 12.1759063083 12.1928224114 7.3707579072
23 1 14.7783037636 8.6123670919 13.4020120205
24 1 4.0225872645 6.6245468764 6.8800173811
25 1 1.1367593617 14.5186515937 0.9732148358
26 1 16.7509214047 16.6770229363 4.9339732896
27 1 2.9265578508 1.8934699578 5.9345567482
28 1 6.8502324559 1.6785100522 4.4235425261
29 1 0.1092367578 13.5525381463 9.483263303
30 1 17.1689199266 4.7422393846 11.557364999
31 1 0.2928462706 11.9332268335 11.7110445523
32 1 -0.3093975918 14.9559057636 7.2090425606
33 1 12.5152479029 17.9407731761 7.9906421376
34 1 10.7147608839 0.5166711471 10.6328291328
35 1 14.858080792 14.0284390477 8.4662634643
36 1 10.9412916641 9.811301617 3.8100916397
37 1 15.4322406539 6.8565898579 3.8628896314
38 1 4.6558812143 14.9564429496 4.4498300947
39 1 13.1522257643 2.9153806674 1.8448265664
40 1 5.1367322515 10.7059772093 10.5731832038
41 1 3.7868043051 11.9324436563 4.6323381773
42 1 4.7765602444 1.5166325694 8.5750820064
43 1 0.5980733998 2.5931074312 12.8410622669
44 1 2.3897984699 14.1898452225 12.1871334528
45 1 11.8191352528 0.7625917843 2.7736984224
46 1 9.1869434219 -3.6254596281 1.2429792461
47 1 17.9936616444 17.5531463383 7.436513831
48 1 17.0438410872 17.8362796341 12.7490763802
49 1 4.1515366114 3.2089202338 3.9447831571
50 1 12.461567497 10.1707242619 11.8686320467
51 2 12.5011189997 9.2491220895 0.8856275904
52 2 16.1428972736 8.2819691363 8.5264089235
53 2 19.1797697584 8.0006422293 1.0297302912
54 2 7.9448015157 6.0933932575 9.764354183
55 2 15.320867767 0.6972026156 2.8871884973
56 2 -2.5686836893 15.270830099 2.8397894688
57 2 13.5412264036 17.6123422744 4.8094023053
58 2 3.7805476474 11.4196011422 8.2293002784
59 2 3.1302727677 8.9692117346 3.3517024243
60 2 13.010749611 9.8245699012 8.4451213094
61 2 8.2509008274 9.5145534767 4.8953177222
62 2 2.254669031 18.5065733654 11.9312171309
63 2 1.0302773904 4.1903676612 0.6833666189
64 2 10.5003418436 4.711906947 5.2823279347
65 2 16.5851844524 10.5811170288 1.0500546125
66 2 6.7031466861 16.3832344 4.9319419507
67 2 6.3874777191 3.5076061684 1.3697842406
68 2 5.8636815863 4.9748624779 11.4247203782
69 2 2.8401138289 11.6414859467 11.0487595392
70 2 1.4007058659 3.5044902793 3.7238133485
71 2 8.1896982405 11.9547282906 14.4584776915
72 2 12.9141721164 13.133502922 12.7765303603
73 2 12.6197391672 5.1656963191 0.8162000352
74 2 2.1358477253 14.2363112868 2.9911963277
75 2 11.0966622929 11.7918107765 0.936335376
76 2 10.2598901315 7.6981754933 5.843283575
77 2 13.1107944609 2.8619550131 9.5647077562
78 2 8.7761708053 14.8651910603 4.7352174394
79 2 6.3987281393 11.7580565375 8.4329559821
80 2 10.3332857545 1.9514872735 8.2817000755
81 2 13.7839421462 2.6594914277 4.5290535725
82 2 8.1545418165 3.7007976009 3.1469929978
83 2 3.3182235705 1.6283318678 1.5657556723
84 2 19.7325644746 16.3914684489 13.5520308749
85 2 -0.5265521459 9.3878970696 13.3078581389
86 2 8.2649006027 14.4556322808 7.3506261658
87 2 2.4786762984 0.4745041477 8.3666807654
88 2 14.2219530371 6.4216224955 8.7237481766
89 2 12.1801011248 12.3593018928 3.1639980499
90 2 15.1032704637 10.9516995116 8.2786856544
91 2 9.8549627854 10.6161348638 9.9669713011
92 2 0.683209323 2.7820260798 6.8269061318
93 2 1.7369941204 7.0276385741 4.4573024448
94 2 8.1339232297 11.5901519188 6.7550973984
95 2 8.3990692041 7.5155483687 11.7227372602
96 2 5.8490752428 3.0317282192 6.3368148269
97 2 14.2073421383 11.6749519694 0.7581136666
98 2 16.451474369 12.3028302572 6.5632601261
99 2 10.1678354417 9.5532175538 12.7394246822
100 2 14.3665806466 8.9126453117 10.8095993453
101 3 2.8141598251 9.1005078099 6.0850848038
102 3 3.409165693 3.6195237753 11.963129881
103 3 3.800748014 6.0622879799 10.7133396998
104 3 -1.4772278905 4.1772964853 13.8000871642
105 3 6.9129632021 17.8823891513 7.3349338522
106 3 4.0841528813 15.4671433776 1.4204100326
107 3 5.7237390238 5.2029736292 4.6474893331
108 3 4.9324242574 4.5750618768 8.4569035795
109 3 4.5566947057 13.5263067892 6.9147994867
110 3 15.083665452 11.4761868378 12.5244597485
111 3 7.2818030717 16.021200113 11.400475081
112 3 14.1838208899 8.4341413534 6.5017649261
113 3 11.816502761 15.4810152515 3.4403450746
114 3 10.7862921246 5.6808347515 7.7181038208
115 3 14.0173662879 4.9603223629 6.4376833536
116 3 -0.2102484024 1.7673109646 9.9866686867
117 3 4.145832558 17.6402044624 3.6007266586
118 3 8.11392295 8.8099506245 8.6889891974
119 3 8.8034287028 0.1133041985 3.1072050778
120 3 8.7133983597 11.8796960548 2.8463582074
121 3 9.9932368475 5.9278516616 1.8603750758
122 3 5.8900974368 7.4834091919 8.4252250368
123 3 8.5524682236 -1.4400646404 -0.1453788576
124 3 16.3264577283 16.4854225626 0.6047616672
125 3 13.6192063293 11.4017737852 5.3278768512
126 3 12.2261748997 7.6537320237 3.7684447776
127 3 7.9231187189 5.8092013584 6.6602812608
128 3 14.2796337793 14.4120303325 5.3583784704
129 3 12.7722462056 10.206185547 14.3433372326
130 3 3.256141267 8.920682953 10.0835788147
131 3 5.3561121153 1.3672745343 11.4463818259
132 3 11.8859316876 15.406767069 6.8161620269
133 3 10.7967157408 15.1420836423 11.9563080134
134 3 2.8970579989 11.7982191638 1.8825125069
135 3 15.371136008 12.5768816753 3.2913299059
136 3 13.1715772508 5.6475244882 11.0885634374
137 3 6.8268895687 -2.0335779162 2.2045047379
138 3 10.2573385855 1.2728810004 0.5039322451
139 3 5.6119377546 10.3183260177 3.6557300678
140 3 7.7866081197 11.0563640561 11.8669265798
141 3 13.7191215257 12.0960199504 9.9335048774
142 3 10.2959767318 12.6412248555 12.6766011859
143 3 15.9052247019 4.3158980101 3.615296711
144 3 4.0843867832 16.2489110906 11.8119963341
145 3 7.8010078936 11.6131668177 0.2057274086
146 3 5.3627141068 12.5369529509 13.1285377152
147 3 -1.9798803399 6.8309526292 11.3428129766
148 3 10.9579566949 7.8030240056 10.3712413766
149 3 1.9458557559 3.8126642224 9.1051647437
150 3 13.8309084278 6.000251756 14.0411458253
151 4 16.1154979837 4.6264761497 9.2052288922
152 4 16.9409475396 14.4796833566 13.0690700698
153 4 2.418394777 8.9834818549 12.7800144576
154 4 5.658292387 8.403184126 11.825852832
155 4 14.7395103834 0.0596633895 10.5984952589
156 4 12.6494559259 14.4586705531 0.7354367597
157 4 5.5623388061 7.7725077754 4.8922381267
158 4 10.8594415812 13.5632967592 9.3021608851
159 4 6.2836156247 0.9083081328 1.3135984416
160 4 2.5247630386 -2.7789280619 8.7973330176
161 4 3.2677557682 5.5907418594 2.4743519827
162 4 1.2846321634 11.3710748136 8.5710777754
163 4 11.01064823 3.3154863046 11.2066459949
164 4 18.0953185779 16.0007372857 10.8821111213
165 4 11.951106928 7.2543139004 13.0403580134
166 4 5.627781413 9.9552960268 6.6307513709
167 4 6.2839488693 14.0799552913 -0.7882721741
168 4 0.8690425686 -0.4365365203 2.6659710259
169 4 7.1267984512 2.9112585619 9.1745616038
170 4 12.6760711625 15.7928305308 9.7195028429
171 4 1.1965254228 7.176698231 7.9888164134
172 4 7.9440069499 3.8233923491 12.093119591
173 4 12.0325076038 0.9192922376 12.6345166042
174 4 14.5579968773 9.627852419 3.1231778515
175 4 10.5486537183 12.8501711162 5.1755752109
176 4 14.9911706411 1.5285734821 7.1095889491
177 4 -0.4147880207 9.5545181186 5.7630345466
178 4 6.4099519279 12.767832555 4.7567771309
179 4 2.1507424602 16.332252364 5.6048903366
180 4 10.4319144027 17.7631370106 5.5804217645
181 4 17.6662776071 9.4116325967 10.2974959123
182 4 2.3514804275 16.7904271783 -0.1326904531
183 4 14.2909057499 16.1495437678 12.6257622106
184 4 14.3737783434 3.174491271 11.85475032
185 4 15.0263174288 7.31446717 1.4543810323
186 4 17.6267790171 1.9230276281 1.1021466182
187 4 6.4892527425 9.6452713675 14.4353428819
188 4 5.3986078038 8.1937118926 1.9116210758
189 4 1.0920728793 6.4939605664 13.360278119
190 4 5.6982727976 12.7247786556 1.7092596096
191 4 8.0407139229 13.2394074095 10.0226163629
192 4 1.6148740091 12.0474125007 13.8880658765
193 4 -1.3061551709 13.4098036532 0.687632809
194 4 10.5630715385 3.2306095132 2.7756835085
195 4 0.6577951334 11.0495830025 3.313130953
196 4 4.9727571853 13.5145454642 10.4668770298
197 4 16.7247096708 5.7774523686 6.1341110899
198 4 4.1438928365 3.4950329321 0.2070918662
199 4 10.2001797863 16.1510092028 8.932898713
200 4 1.6234567208 13.0186055622 5.8423299264
