# LAMMPS data file written by OVITO Basic 3.5.4
200 atoms
4 atom types
0.0 17.616934 xlo xhi
0.0 17.616934 ylo yhi
0.0 42.27 zlo zhi

Masses

1 183.84  # W
2 92.90638  # Nb
3 178.49  # Hf
4 91.224  # Zr

Atoms  # atomic

1 1 11.4634665004 13.7051075465 2.0713136946
2 1 3.4480897339 5.0681732856 4.1390707914
3 1 13.9561897273 17.8899149106 3.9410502132
4 1 3.594723227 8.9916029566 13.484831682
5 1 9.3591387085 -0.8043701802 4.4843089029
6 1 9.8873773656 6.5352402006 0.3613057839
7 1 19.0251721587 8.2242089592 12.2882719662
8 1 11.6929119152 1.9337645126 7.8749622915
9 1 14.2328916867 12.1519864894 10.3843584618
10 1 11.5068258269 16.4976146159 6.9430732218
11 1 13.1517367476 9.4791063295 8.5406463141
12 1 8.289127361 -0.5113204107 8.789852058
13 1 17.2389403075 8.6935401123 4.0119501069
14 1 9.8607999304 9.6536024131 10.9972933287
15 1 13.7357692916 11.9665148797 6.118303518
16 1 6.361319486 2.2302270346 0.7458761304
17 1 -0.5764502157 -0.4732241432 11.5968734118
18 1 9.4739674698 1.4287414512 7.3194879945
19 1 5.2743999338 12.2953629638 11.0875545732
20 1 12.2937145472 10.6058981123 10.901657031
21 1 11.2053600957 11.3702699247 6.0004268598
22 1 12.1863780918 14.3200058398 6.5555904723
23 1 2.1882883377 13.3880695027 10.6667634864
24 1 8.4703474759 6.6109764569 2.6225149173
25 1 -0.9087417056 12.4748432303 6.2009198103
26 1 15.31671841 10.7564367512 8.6798338155
27 1 2.0883814718 3.4267036569 6.8854122921
28 1 2.031581834 0.7770142527 5.7423173631
29 1 0.1160547238 8.0177760168 6.4933643826
30 1 17.8757336311 10.1272962238 10.9913163507
31 1 7.8204587807 11.1893736089 9.8164208553
32 1 -1.3493447484 10.8761869792 3.7808114064
33 1 14.7415197013 13.4866542177 7.8585260247
34 1 13.6376574151 1.0112423127 9.4392824202
35 1 15.3289762727 9.6944018229 6.0768290394
36 1 8.9527357721 10.6638097309 5.7669578142
37 1 16.2464751801 6.2667882514 3.1374522843
38 1 -0.7480386243 13.8476405221 4.0874696889
39 1 5.134019219 6.2242375422 2.1816083829
40 1 4.9254333111 7.164873826 8.358199272
41 1 4.1843975942 14.9022375809 7.069589868
42 1 0.8374692281 18.6976673659 13.6509012126
43 1 16.2270326032 4.8499047585 9.9112544457
44 1 5.0439392551 9.7469464426 9.1955497959
45 1 7.1666244207 3.1292408454 7.3504609143
46 1 9.5568408746 15.0426663899 8.1245974986
47 1 11.9953227949 0.1983677339 2.3673626298
48 1 18.5988310811 6.6245090809 4.6275158586
49 1 8.1522244052 4.154398422 1.5984138426
50 1 -0.3065873262 2.4116573196 8.7502924104
51 2 11.1967129998 18.4387058352 5.0969550657
52 2 -1.1523706902 5.2343538241 5.7619133124
53 2 12.8865062309 2.7785865205 0.7638544068
54 2 7.8946466846 8.285857658 9.6096858939
55 2 -0.5604290236 19.0680281694 5.7416723229
56 2 15.8623958939 17.759218753 9.0136197159
57 2 7.1307574001 5.5753686912 4.8410106384
58 2 11.5233200337 12.4094093571 0.0548127771
59 2 3.7256561562 15.6368459356 9.9419893854
60 2 9.8105506211 4.0080024051 7.4642318874
61 2 7.7862380626 6.524786312 7.469417571
62 2 3.2256232675 17.531329442 3.3321305736
63 2 5.3971385223 5.0517766767 6.4012407219
64 2 11.0088611662 6.2374863574 5.4140451615
65 2 17.2844307545 14.8487735334 7.192308132
66 2 12.1178586125 12.3985092315 8.6974337754
67 2 5.9069882713 10.3585464935 0.2897629635
68 2 7.353643678 10.4905760768 12.4478670009
69 2 5.2109927126 17.5407742326 8.9654509374
70 2 5.2342076035 11.4931721745 13.5000679035
71 2 6.6899831208 13.026513819 6.1704384906
72 2 15.0308635726 9.327212596 10.7901906183
73 2 5.3058944314 4.5520422188 13.6029585786
74 2 4.117114119 16.8983801334 5.9014482732
75 2 22.1098382854 8.1171191408 0.4412463852
76 2 11.0440080065 5.1838938162 11.7948124089
77 2 12.5081873298 5.031306504 9.6365188899
78 2 9.1245859684 12.489924559 7.7481776535
79 2 10.5710676721 21.6747230938 0.1350137616
80 2 4.0691129066 19.9039918543 4.884797286
81 2 2.2857517348 -4.6418693797 2.7571216188
82 2 9.9430463485 6.9094353298 9.7357020633
83 2 18.250075157 5.5488101062 11.6367412077
84 2 0.6660252783 15.2693159972 10.1997598767
85 2 8.6178385614 8.2900767375 13.5992159928
86 2 9.998081298 9.36479762 8.2433783121
87 2 0.4449012223 7.2978749832 1.494608022
88 2 10.1028985319 3.1951021055 10.3676005203
89 2 13.5779809321 11.8753423135 1.446445584
90 2 17.7136391643 0.7690691916 3.2966233509
91 2 14.1400108064 6.6660269092 4.7810464164
92 2 2.5355413611 7.8617105933 9.3631372422
93 2 7.3063848432 9.3016060301 2.2394159895
94 2 12.3279724371 2.6166796741 3.1068758571
95 2 6.9857642197 9.4396546151 7.3071730527
96 2 3.6267858707 12.592486473 5.5267640343
97 2 19.1681082097 9.7011654923 2.3137799097
98 2 12.5067621199 12.9451020912 4.0174240719
99 2 4.1705875035 6.3766574935 11.8638308649
100 2 5.8563165079 8.5348432475 11.5179718071
101 3 16.2098941451 1.8114890733 11.2656828894
102 3 3.6349567809 2.4426832067 1.8087210417
103 3 3.087842636 8.2658451733 3.6589026129
104 3 5.0794479472 14.3460015638 3.7444600518
105 3 4.3384978486 11.3133059209 2.3817373887
106 3 -0.341796002 11.7782663128 1.8001960281
107 3 5.8100697659 7.6646512692 4.7779738101
108 3 4.8122503237 16.2653822021 1.678300761
109 3 1.3898469605 13.1923110129 7.6101715986
110 3 0.851324242 16.0443710707 13.6888275474
111 3 15.6250284962 18.5389983358 14.064645045
112 3 14.2503498921 4.2893508308 11.5954265097
113 3 7.5190451956 15.4847120833 5.5720263276
114 3 7.0368850388 -4.026589856 12.3652147791
115 3 4.5210644259 1.9440281384 7.8465746049
116 3 17.1635495193 16.6975273549 4.9690523862
117 3 6.1190646224 3.6639840269 3.0479138568
118 3 12.4748005974 8.8592626105 6.2531443953
119 3 14.9742876699 -3.1502469252 1.7593082571
120 3 4.2453000397 12.6836701379 8.6896535592
121 3 11.8887542616 6.4965273405 7.6048730541
122 3 6.2728130666 8.8669904547 14.7530318619
123 3 5.4042950494 13.848173082 0.8771570283
124 3 6.2447026059 10.53619777 4.7746653372
125 3 13.04022226 7.565177956 10.8025960179
126 3 8.7658563932 6.2908540402 12.0557835846
127 3 9.331464443 1.5519081312 1.4527632582
128 3 11.6050337157 7.8390749472 1.6847841336
129 3 16.7705388 12.5359362911 10.0173551046
130 3 0.6363736882 5.6855795257 7.9361265588
131 3 5.5862906618 4.5488847357 0.1368609606
132 3 12.0319935 15.6078733021 4.2369689568
133 3 7.0457918083 14.6187088834 9.3856975866
134 3 10.9104580818 4.7223715452 2.5878932511
135 3 14.663245021 14.6269303541 5.1097083474
136 3 12.0579481765 2.1011378937 11.7208508991
137 3 7.3970412332 12.8358133271 3.5343671616
138 3 7.9608461899 17.6238588644 -0.1405122432
139 3 7.3010460314 7.4822088913 -0.3941322432
140 3 5.5831435727 -0.395502987 11.4624476259
141 3 9.9918404991 10.9883259871 13.1521274709
142 3 9.6868515573 13.1241190325 10.5701532879
143 3 17.5174842935 3.1970225275 1.0048711836
144 3 5.0889873408 2.9567518591 11.5883217681
145 3 4.0277198061 15.0160732756 12.4664653782
146 3 10.0939898245 8.6162695973 3.977699994
147 3 2.6611705362 5.6013591301 1.7444473932
148 3 13.4289074936 5.5931397734 2.1717218526
149 3 -0.3347735398 8.2568633557 9.5115522846
150 3 15.2784526677 6.6601840769 8.2641658527
151 4 -0.3796782237 3.670275034 13.5028771677
152 4 1.4998911387 2.8841966926 10.4627731161
153 4 7.103480925 0.9366132807 5.7526096854
154 4 8.0091972746 3.3314753201 12.7620890772
155 4 15.5383447248 7.2792577597 11.9848448025
156 4 10.6393399858 11.0361704088 2.6657076714
157 4 9.3364384082 9.3064579099 0.0146926293
158 4 4.1875290042 7.2409477989 15.447199524
159 4 12.4954793545 5.7361489347 -0.8120887038
160 4 15.1113849405 15.1358444678 12.0050621208
161 4 0.5487146433 12.9609745964 12.8055806802
162 4 1.2379327914 11.0966486385 4.8118950624
163 4 14.869315407 11.6782651963 12.9057466311
164 4 14.4449241716 17.581907131 6.5484899577
165 4 11.4944492261 7.5482755649 12.8842590993
166 4 3.7501447515 9.4024915167 6.7486067052
167 4 3.9321301461 19.134373719 14.2233595956
168 4 1.7104545475 15.7080084834 1.79110671
169 4 0.8908316259 6.6053947075 14.4407039043
170 4 12.90223921 15.0743589018 9.7693079814
171 4 -2.2634328411 8.311921031 1.3197120927
172 4 8.6574974509 16.0893796945 11.2214063325
173 4 7.5699183206 0.7087123426 12.783111639
174 4 13.403211786 9.0810770741 3.6858814404
175 4 10.0592617387 13.8624556589 5.1226607208
176 4 19.51863904 -0.4156662726 8.4996000306
177 4 10.7169230253 0.0471874862 9.8400151239
178 4 8.085670271 4.6738809343 -1.439669703
179 4 2.7635078343 6.6365488459 6.651907317
180 4 14.8950600896 2.708287907 7.7668859328
181 4 3.8117508174 4.9608503952 8.9583673308
182 4 8.8384813228 15.5056934994 2.486866683
183 4 7.7408196688 1.5106147426 10.1537430639
184 4 19.287008773 10.3908952362 8.1731293764
185 4 13.4775420347 17.0633704718 11.6876051214
186 4 14.8983248598 -0.0223676926 1.5386854872
187 4 6.8243640363 5.3309501157 9.6436392714
188 4 7.1629197557 5.9854230896 14.5115936532
189 4 6.8607088282 0.4283379571 3.0529198929
190 4 19.9584910728 18.066176211 0.5887065483
191 4 19.438937388 14.9380820518 4.9244013171
192 4 2.50760936 21.6963179315 14.1998748063
193 4 3.0745451981 10.6787777827 11.4325754169
194 4 15.417156955 5.2251160324 0.1469216433
195 4 15.5589248271 3.4437431078 2.8528906443
196 4 2.3381279366 17.598643923 11.5528454025
197 4 12.3965299689 3.907059135 5.478711921
198 4 8.6579775124 12.6001477253 0.785144115
199 4 1.1976814444 3.6694512662 3.7382057826
200 4 8.8253739716 20.8377427356 4.6434106467
