# LAMMPS data file written by OVITO Basic 3.5.4
200 atoms
4 atom types
0.0 17.50115 xlo xhi
0.0 17.50115 ylo yhi
0.0 42.0 zlo zhi

Masses

1 183.84  # W
2 92.90638  # Nb
3 178.49  # Hf
4 91.224  # Zr

Atoms  # atomic

1 1 10.9568116217 -0.0788881837 11.4785118
2 1 4.992910434 17.396188078 7.00697928
3 1 12.4266609305 1.6784808679 12.54806616
4 1 3.0984147967 8.1485832181 9.44822214
5 1 8.806502025 1.117547834 5.5989339
6 1 1.829235424 6.7650817833 5.1804459
7 1 14.6165868304 5.0471144707 2.0662404
8 1 7.2771922091 1.3814284236 10.35524994
9 1 16.2787105985 11.1086528242 11.16152562
10 1 8.2601500742 13.8563816774 13.76784486
11 1 11.1561124428 9.4756117671 6.50876394
12 1 9.3031507097 3.3815121741 7.3669113
13 1 16.2466005386 11.6860609157 13.52736924
14 1 6.7703188274 7.1937677272 12.85133388
15 1 9.0926472276 8.7720305348 2.2031457
16 1 8.9795551463 16.5907809547 1.82406462
17 1 0.7384963766 -0.1607611886 5.4122019
18 1 13.8268091092 0.0405163873 4.71432864
19 1 15.495974115 16.1906458618 6.64237182
20 1 14.7249775778 7.8715652153 1.63971234
21 1 4.0268807312 14.2869680712 3.16986894
22 1 13.6002827991 11.96667768 3.48677028
23 1 10.8505029862 3.9274243209 12.97627842
24 1 3.4366589978 5.7724051796 7.8241947
25 1 0.4466352984 16.3401420852 0.25695474
26 1 -0.2649903375 14.295852005 5.65657428
27 1 2.5924154225 4.4956108814 5.7851892
28 1 5.5133998853 15.441173464 4.9597863
29 1 1.134546351 12.4361987072 10.83560352
30 1 17.2147127032 0.6788741588 1.43932656
31 1 15.8446195994 9.1962582358 13.30165074
32 1 3.2473656843 16.2967332828 9.1456995
33 1 12.9594865924 16.9267725827 7.25175906
34 1 11.9353525466 15.6733584209 9.73350672
35 1 16.7603399714 13.8768569728 8.01860682
36 1 10.5743985434 10.7009059562 4.348764
37 1 12.7466012038 7.3410952081 6.19876404
38 1 5.1965963432 15.1176783572 7.9983162
39 1 13.6185601251 3.1013464144 0.56616714
40 1 2.6893600678 11.0490668338 9.40017372
41 1 1.3117103174 9.9788191829 3.90811092
42 1 7.1347492991 1.4523576094 7.63242648
43 1 0.59861581 0.3612473626 12.87779514
44 1 0.995389807 15.4646388309 10.71833112
45 1 11.6216414577 2.1389158231 3.4805127
46 1 8.7213599803 1.4133851735 2.83957716
47 1 0.2992407881 16.2560977127 7.73883894
48 1 16.1349395264 16.0536724113 12.06777516
49 1 4.7370343454 5.3978161653 2.193828
50 1 10.9903336745 9.3830627107 0.60371052
51 2 9.037806499 6.3517993015 1.33131558
52 2 16.0930559492 7.9631615091 8.80384974
53 2 -0.3162473556 10.6696559027 1.18825728
54 2 6.5987039506 6.6002932301 10.68468492
55 2 16.2123770398 1.0745578342 4.12572006
56 2 0.4242481773 13.8983916129 0.79521246
57 2 15.9305939988 15.5011072023 3.70960086
58 2 3.4641123517 11.6146796752 6.66326178
59 2 1.145077843 10.7250815198 13.2634194
60 2 13.9109226113 11.6623263811 8.94549012
61 2 7.7676355111 10.8994071497 3.59422518
62 2 3.2791299215 16.9135018107 12.19250004
63 2 -0.1251577241 6.024444141 1.02663246
64 2 11.2151110946 7.921066868 8.95778352
65 2 14.0969801371 10.6742375288 1.00472946
66 2 8.3273383891 15.9643930948 4.06767858
67 2 1.8500183896 4.8468607121 3.0483159
68 2 2.654514228 1.9791261233 12.62783802
69 2 4.998601633 12.1431899036 9.08920698
70 2 3.1748088916 0.7139412131 4.90743204
71 2 4.0653991872 11.0558168524 11.83464618
72 2 13.3040963117 14.2616997358 7.9176489
73 2 10.5012052339 6.9054746085 13.6235799
74 2 5.4293665385 12.4390233928 2.20474758
75 2 14.0164148182 13.1347030309 0.5461974
76 2 5.8728635307 6.9479847269 7.66344936
77 2 13.031341239 0.6841680817 9.58039824
78 2 8.4399239871 13.3531312088 5.73828402
79 2 6.375958589 10.0301850581 5.81594412
80 2 12.2509107069 4.3978858599 4.6609059
81 2 13.5603383494 3.0349020733 7.69903302
82 2 7.5716814349 5.9835696802 3.55858104
83 2 1.5597056382 5.9056540353 13.15642734
84 2 0.1732883368 14.258216832 12.80474076
85 2 1.2933575615 8.005010259 13.85296542
86 2 9.2168261123 15.2189023836 8.7441711
87 2 2.1394592338 1.1633586693 7.4718168
88 2 11.2957735449 4.9212644011 7.2719136
89 2 13.5372044543 14.7188502502 2.42205306
90 2 15.7524413924 9.6813999145 3.19758096
91 2 11.4178634924 10.330503042 8.87925108
92 2 0.0593530501 3.1528382979 6.11121882
93 2 -0.0551000956 7.9244946433 2.54009742
94 2 8.4422082372 8.5435176693 5.03583864
95 2 8.7888843173 5.2124952629 12.39079338
96 2 4.1993396885 2.6588616887 6.65810082
97 2 15.4307069013 16.1372743548 0.82612362
98 2 14.8054590662 12.1836201853 6.32661036
99 2 9.326104693 8.3026309656 11.52869466
100 2 11.6420148964 6.2613279817 11.3945622
101 3 16.4108945093 8.156950868 5.86337136
102 3 3.4114557666 0.2278924498 1.7808693
103 3 3.7432878963 3.4420034989 0.63110334
104 3 0.1187937809 3.5143152755 11.7021933
105 3 7.4231237982 16.2730920294 6.86147868
106 3 3.100122559 14.8688813087 0.77560854
107 3 4.29775023 3.0442091849 3.3383805
108 3 3.8038005726 4.0683211793 10.79767752
109 3 7.4331001538 13.4425699608 8.71179708
110 3 13.3657360621 8.2044946671 13.12022376
111 3 8.0190960595 17.2254512338 13.50753768
112 3 13.7883261805 9.7389727476 6.77454582
113 3 11.0453518647 13.9353788933 3.47828586
114 3 8.446313307 5.8234726602 6.18260832
115 3 13.3287832589 6.4515257545 9.03157038
116 3 0.8563881482 0.7501811944 10.36047222
117 3 5.5955161562 13.1526088075 5.92210626
118 3 5.6916315969 9.5338303927 9.25600536
119 3 6.4770851341 0.7509895725 4.50408924
120 3 11.3322347408 15.6614126609 1.10993652
121 3 11.1897095755 4.3984443216 1.00308264
122 3 4.8784187857 5.8835051049 4.75792464
123 3 6.3087944257 1.4290494028 1.37343108
124 3 15.3713498259 1.2628429064 6.95622816
125 3 12.2756186555 12.1967568985 6.03487374
126 3 10.8136439892 6.8381058567 4.26430956
127 3 7.0725692883 3.2983015563 5.49389526
128 3 16.2068634775 12.8319413615 2.56565484
129 3 11.4442203994 11.6329718772 1.8856404
130 3 1.4575314743 9.289717002 7.20707946
131 3 9.14845997 2.0606517304 12.00787602
132 3 12.811161546 14.8730411571 5.08475646
133 3 11.1561168181 14.3095307288 12.66193992
134 3 2.7164964759 11.1522557144 1.5090978
135 3 0.5856593587 11.7298750447 6.27714696
136 3 15.4132649051 1.5250771628 11.83955052
137 3 0.9076210147 2.5200945453 -0.08136156
138 3 9.4725933438 4.0003269364 3.87645594
139 3 6.3100266816 12.611906753 11.88848976
140 3 9.0387743126 10.5674490117 9.92085696
141 3 11.7516186485 9.6744062799 11.76559986
142 3 8.454851943 8.4464344149 7.82628756
143 3 14.3233629377 2.8937080455 3.73573494
144 3 5.4890960383 1.0609891926 12.53702646
145 3 9.574559594 11.885883096 12.32724234
146 3 6.0092361667 15.5197734038 13.16108136
147 3 15.8348982357 5.4254041031 9.88103046
148 3 9.2684588801 5.6571060283 9.18179556
149 3 1.9118973807 3.9576110045 8.56031316
150 3 16.1259166335 7.1781358751 12.10017186
151 4 13.5802865102 3.5930107716 10.6887732
152 4 13.9138465284 11.6360851568 12.27249912
153 4 3.8003589715 8.2088792302 12.40796172
154 4 4.1830405175 5.9597338139 13.4250375
155 4 15.3599695281 16.2701304847 9.5088
156 4 13.7513264742 0.6049858786 2.04467046
157 4 6.4435685067 8.379109241 3.11519418
158 4 11.413215362 12.9310426734 9.72254052
159 4 7.01362454 3.8399626738 2.06547306
160 4 4.4508180881 1.3468806285 9.51905976
161 4 17.0827647079 5.6383549461 4.561788
162 4 1.0290627197 9.5191325769 11.34333942
163 4 10.9254903386 3.0465567891 9.98847276
164 4 14.7851470565 13.7699916257 11.17494042
165 4 11.0780891659 1.4383269374 1.24133058
166 4 3.853722603 8.4698782554 6.6750432
167 4 7.9760848833 13.1888157117 2.64155808
168 4 1.1111763654 16.3078045103 2.97495828
169 4 6.3168453047 4.0208561353 8.7153633
170 4 10.0998335097 15.6147654457 6.1374054
171 4 0.5403793333 6.4981822453 7.76103216
172 4 6.3930512622 3.7970265775 11.83596414
173 4 9.777770872 0.3737141317 8.9881869
174 4 12.6846319068 9.2985169302 3.66282378
175 4 8.9414771942 11.2588237169 7.19665422
176 4 16.6185325282 2.8289061873 9.15121158
177 4 14.3454975172 6.9368191682 3.909213
178 4 4.2255756624 10.8855184121 3.9958065
179 4 2.6927342895 15.2761117178 5.66208972
180 4 11.2436041919 16.783206624 3.49554618
181 4 14.2412162149 9.0888368772 10.31555322
182 4 6.2211294152 15.685931422 1.7464209
183 4 13.4799767438 16.4883073461 12.20005794
184 4 13.3596794391 5.0509915005 12.87760236
185 4 16.886387979 3.5758594696 2.4376821
186 4 1.4271715294 2.3424503473 3.40691568
187 4 6.8390243171 9.8223820034 12.50636142
188 4 9.5798925444 9.240713432 14.09696274
189 4 1.0880284693 6.4969603151 10.66320906
190 4 8.3138653038 10.9728747022 0.6141723
191 4 8.7124161926 15.1578140945 11.57742474
192 4 3.6185978029 13.8295685155 10.9948713
193 4 1.6108128465 12.8699664601 3.6083628
194 4 12.1133397672 7.2327609895 1.55254134
195 4 16.8031654605 10.6679633665 8.32142346
196 4 6.224474585 16.2666740076 10.26564672
197 4 15.5342587556 4.920014819 6.91048386
198 4 2.9217191611 7.9980364007 2.97199812
199 4 11.4910279251 1.6048124022 6.64595904
200 4 2.2005399974 13.5684405068 8.08596222
