# LAMMPS data file written by OVITO Basic 3.5.4
200 atoms
4 atom types
0.0 17.670372 xlo xhi
0.0 17.670372 ylo yhi
0.0 42.408 zlo zhi

Masses

1 183.84  # W
2 92.90638  # Nb
3 178.49  # Hf
4 91.224  # Zr

Atoms  # atomic

1 1 18.9172155363 19.1492513756 9.0250441013
2 1 3.0409217066 9.9942102613 6.832315985
3 1 -0.6924958708 5.9053725886 7.5622310309
4 1 17.4441345165 16.2046711878 12.5655582528
5 1 9.545973533 13.2809369145 3.543882619
6 1 12.0526504495 4.9278009598 3.9921640164
7 1 -1.4624710216 8.0504476067 5.131097437
8 1 4.4763309069 14.1225309666 13.4804726856
9 1 19.9903465931 -2.1068828062 14.8929457637
10 1 3.867460425 10.3437302195 11.3084791128
11 1 7.2960746875 9.7711301199 9.252116465
12 1 12.6209082318 11.0931476595 3.6431241242
13 1 3.4432691856 17.701748396 4.1870563416
14 1 6.895075988 7.0469295105 9.1896219158
15 1 10.5663210683 15.6191045692 11.9879863135
16 1 12.4555024176 5.6156807993 10.3036088304
17 1 4.1140495827 2.3505932836 2.3643969725
18 1 12.0120661993 5.0209070334 7.6073561114
19 1 15.5600153754 8.4925942413 1.7594290411
20 1 13.1907946924 3.157591928 11.9710171764
21 1 12.8846496663 2.917959419 6.3741653978
22 1 6.7951330708 13.4595872027 3.070360404
23 1 0.3984621176 8.3538994915 12.0674996172
24 1 -1.6571819109 14.9822191262 2.8262137313
25 1 5.8914771382 2.7786552181 6.7225674737
26 1 16.2854523536 11.761773685 12.2905037815
27 1 1.0066948757 2.4424742703 1.5383862468
28 1 14.706554785 0.7883362577 9.6819558955
29 1 12.9044334148 6.9914383578 8.2987337354
30 1 4.6948496185 8.8878564312 9.3578044104
31 1 15.7885420556 15.7208788438 5.6492243863
32 1 19.4373083022 13.0836970416 13.7921663966
33 1 9.2090654495 8.2660056475 13.2098981954
34 1 17.5105881913 17.5499026486 10.6733065075
35 1 17.7265987703 21.5171363552 8.9832565303
36 1 11.1717292174 12.8738156078 12.1921536924
37 1 10.7954073691 3.1581287539 2.3466988418
38 1 3.8850477463 4.8636368351 3.2356197151
39 1 6.0670144369 6.2012742768 1.6696152583
40 1 5.6041344481 8.4342509138 3.3740127101
41 1 17.6861936977 14.8252832514 9.6720324235
42 1 12.5028429345 12.8834583298 8.0329263286
43 1 12.0855555094 1.6306717586 4.0649823691
44 1 0.0248862451 7.2345999935 9.6090989515
45 1 13.39865976 10.7968390227 12.6459498262
46 1 6.9754585103 14.4888701149 5.2331688281
47 1 18.5245402888 2.7603976596 11.627547575
48 1 5.2497311059 17.6673556675 8.401772029
49 1 5.1977358596 14.3156204225 8.5532415307
50 1 7.3923190192 -0.2169313821 9.5790431297
51 2 11.1161081875 0.7134504581 1.3494089894
52 2 11.1068586313 8.7342961275 3.4837650382
53 2 3.243397134 17.857044107 1.6339844808
54 2 5.4807698062 9.1308054923 6.1946896529
55 2 -1.0419202322 9.6959071696 10.6022497831
56 2 1.7487985488 14.5491098267 3.2537410776
57 2 18.0628170025 7.7057087211 2.8996156181
58 2 17.2043374964 4.7962086393 12.0333047746
59 2 13.9935367209 17.9445841901 7.0041816144
60 2 17.9803350634 12.6059583903 10.9925204292
61 2 10.4394838449 9.7398714085 5.8788768528
62 2 16.3921084219 1.6246309652 0.3908736878
63 2 4.1980149496 11.3650611109 13.5753550726
64 2 1.5311518701 2.5048077445 3.9323602548
65 2 2.6128290257 0.5860622725 6.7225187045
66 2 -0.4223777292 17.040194937 7.912182271
67 2 11.0587171164 6.8900385184 5.8127657494
68 2 4.3921522586 16.7841031833 13.6950800659
69 2 8.0688917643 8.0141436508 3.2337732708
70 2 2.9764661974 0.6989086255 11.4275641694
71 2 4.4009651799 8.0235407546 0.7674376442
72 2 11.1158321763 5.7903497759 12.6281974133
73 2 13.0633808848 14.7965590014 6.545918646
74 2 -1.2515438552 0.9136796279 2.9471274209
75 2 9.3527291079 16.7077797222 14.4210749162
76 2 5.7000661909 6.3887399602 -0.781626937
77 2 -0.7536452533 4.2530572749 5.5145162225
78 2 9.8765489087 18.0341595466 10.493621267
79 2 2.4113466731 6.8897255761 8.0607667565
80 2 15.2734063591 7.3595346479 10.5767523972
81 2 3.638133277 2.5728860333 9.4194813334
82 2 3.7462623474 4.4709197088 0.5542293038
83 2 4.612951155 11.1680258609 8.6297951801
84 2 17.4155611716 14.2935835249 13.9886477496
85 2 17.981724308 9.932289567 4.5299301106
86 2 6.907161639 12.364135462 8.9652814754
87 2 17.2220863248 13.1048398184 4.6985913914
88 2 1.1417209029 7.5468070174 0.4288449629
89 2 13.3075235795 1.4369776225 0.8968151225
90 2 1.216012978 5.0087054648 2.2451041166
91 2 -2.0188776389 3.0187950434 11.0218425926
92 2 12.7300996451 9.699099499 6.9408439942
93 2 8.822958456 7.1090336232 11.1283782739
94 2 13.7876586866 13.5677468429 3.7536673615
95 2 4.3963915576 15.4248679527 6.3860493917
96 2 16.3226901887 4.0581947738 1.265730372
97 2 19.7058710976 15.7711545862 12.4022823638
98 2 15.2509464328 -0.7167977567 1.3366925266
99 2 7.9545390122 4.6509652496 10.8277835846
100 2 11.8166610411 15.0778243205 3.2277394606
101 3 21.5143281797 7.8576076564 13.8259447927
102 3 7.2702303549 3.6666410648 0.8030018412
103 3 -1.100351028 6.5307447241 0.0538522229
104 3 14.4394854894 2.8917948992 3.8456935697
105 3 6.0923512765 2.9478476163 9.5933032438
106 3 1.4713544477 15.6365249055 6.3795686011
107 3 5.4459618239 16.3753593831 10.8945961164
108 3 17.0394246855 11.5031633732 8.1974036362
109 3 2.675535168 7.0218612605 5.0340407918
110 3 1.8985455862 3.8621232658 7.084420519
111 3 8.4803834841 12.5479170495 13.1940859486
112 3 9.9132159908 5.5279051701 9.095079217
113 3 8.0189347954 7.6839326382 6.3510127502
114 3 4.0839740795 3.0536281177 12.3934873687
115 3 13.0655433849 9.3727816228 1.3541010106
116 3 2.2254419904 5.0834652747 10.3836789511
117 3 7.9952980223 10.7402070708 3.8110152758
118 3 1.7427595225 10.0614336575 9.2336214881
119 3 5.3181838299 5.4499328866 8.0502063163
120 3 16.2528275458 14.2409505549 7.6475368433
121 3 14.6510532067 12.1457425635 6.3703893895
122 3 9.9136287707 10.034735139 1.3559703552
123 3 4.5952058606 14.4888681712 3.5211506587
124 3 2.5413362909 13.3991092943 8.1019114222
125 3 8.0442843577 11.913806385 6.4531897373
126 3 10.2789395034 8.2500719197 8.4404074133
127 3 -2.4595201714 10.3657020901 4.187864214
128 3 12.1053795463 8.3204480636 11.6052346058
129 3 9.4556643259 10.0999858149 11.2920315941
130 3 2.6688771485 16.5019329645 9.1306077912
131 3 10.3626016466 3.6045615139 5.4354986683
132 3 7.8965999828 4.768013617 7.2830006438
133 3 9.2901033658 1.5317432974 3.6565700047
134 3 11.9684742751 18.1293904824 11.8713079109
135 3 12.5789342069 16.3338532696 0.0564764299
136 3 13.0536540518 4.1188753613 1.3503004056
137 3 5.4321319306 5.2160782359 10.8948183343
138 3 9.8866392212 14.1883379058 13.9500730087
139 3 5.2775895076 12.4221467632 5.8095075427
140 3 0.1796893061 9.1495447451 6.8911596295
141 3 10.9841340103 12.6324471615 1.4340472999
142 3 12.3625081975 -1.017379973 8.9543622636
143 3 1.2069210415 0.6310414976 13.6902438576
144 3 7.5388343223 -1.9069623378 12.8447148499
145 3 8.4831575558 14.1646350455 10.4521920437
146 3 0.0022856626 19.1240209117 6.1219081951
147 3 -0.2234775481 10.0572666304 1.4556270348
148 3 14.1905668465 17.1360821504 4.1537032978
149 3 5.561678022 12.7426502035 11.3882591628
150 3 14.2693415416 5.1614958704 5.7710299162
151 4 15.6038771262 0.0623380685 12.769976687
152 4 2.8625714613 13.1755520528 10.9114270034
153 4 7.8301275774 1.7011482703 11.657286185
154 4 2.6333206493 5.4768770232 13.7736811735
155 4 11.1275013366 10.741180885 13.918215271
156 4 11.3586176098 6.8015154325 1.3784741604
157 4 12.8806035045 10.2658823354 9.8771972386
158 4 12.2024441367 14.3445136012 10.0752413263
159 4 6.0662835903 9.0086383716 12.536462124
160 4 6.3810289632 18.3011763612 1.9113417065
161 4 4.9659670196 11.0479480849 2.6646146546
162 4 15.5834694368 2.7445052804 7.5055183884
163 4 6.6915857511 9.9238526712 1.0813463251
164 4 18.0185919489 17.0938405961 0.8977726951
165 4 15.0994728233 8.3826081914 7.9004708777
166 4 13.9665457578 13.4184663033 1.0886146322
167 4 14.196218715 13.5091859931 12.8045332699
168 4 7.7158812009 1.122065618 7.0824769603
169 4 15.1887382416 12.6784684084 9.9501585062
170 4 9.8781150337 16.2365524264 5.0086854727
171 4 0.9673835991 4.1681580288 -0.7761732682
172 4 11.1448888059 12.3246953684 5.5336596178
173 4 12.6063936116 2.5472129265 9.4303661947
174 4 2.1171609548 12.426388536 1.912680103
175 4 10.7218056755 0.8851474549 7.203565795
176 4 0.6936925083 -0.5928883372 4.053945263
177 4 14.6930899615 4.9989623751 8.933277006
178 4 2.8557911629 9.1904931817 3.9669753607
179 4 3.0007244375 7.356599069 11.1193220455
180 4 5.5981433085 5.9527291856 5.1072743189
181 4 8.3141703106 16.0010645031 2.3667548573
182 4 7.1597042984 15.4846185486 7.6087386122
183 4 5.5511019509 1.8116105367 -0.8005476902
184 4 13.8632468835 4.690889158 13.3561816229
185 4 8.8216506718 5.4821090437 13.5713682965
186 4 17.0344490621 13.6256945307 0.822587976
187 4 10.3816976643 11.5080525884 8.902435788
188 4 5.8513447194 17.4206203758 5.3222230836
189 4 10.6025156447 3.2028851556 12.2149942171
190 4 7.448878876 3.1868507067 4.8079514455
191 4 14.7323687246 5.7994212148 2.6345550161
192 4 9.3456256184 2.845109423 9.0737072813
193 4 13.5839572887 8.204748299 4.5605495347
194 4 9.0764420628 5.6004146581 3.5007731906
195 4 2.3724366907 12.191579155 5.1273294862
196 4 15.2441468737 15.739104949 10.7246456323
197 4 15.1063584372 8.9816569504 13.3915265705
198 4 9.7875204501 14.8284474849 7.6669355347
199 4 6.3136168475 -2.8682837625 14.9949874692
200 4 1.5893419954 10.8405065761 13.0827793673
