# LAMMPS data file written by OVITO Basic 3.5.4
200 atoms
4 atom types
0.0 17.616934 xlo xhi
0.0 17.616934 ylo yhi
0.0 42.27 zlo zhi

Masses

1 183.84  # W
2 92.90638  # Nb
3 178.49  # Hf
4 91.224  # Zr

Atoms  # atomic

1 1 10.5919567754 15.4661258656 4.4616572553
2 1 1.4085702379 2.6874810748 5.9201950182
3 1 13.3481748986 16.4326852916 2.9775934848
4 1 0.8313036535 9.0361820795 7.6109738832
5 1 9.3440686546 1.5113003937 3.7600953021
6 1 8.493611342 8.0648674907 2.3084428995
7 1 16.3778233404 6.776193349 13.456261389
8 1 15.6433828751 1.216906276 8.1149210502
9 1 16.3992652631 11.0065084247 13.118942562
10 1 8.9266419218 17.1959118271 5.4996499428
11 1 11.8871969246 9.8778474851 6.5505671055
12 1 8.3706356295 0.1189021488 8.0806413483
13 1 15.8321967695 12.3643757172 3.3576447456
14 1 6.3566779524 10.8826118751 11.9564862822
15 1 14.612423866 11.436333251 10.4600631864
16 1 8.5226399973 3.1939550669 0.6604277481
17 1 3.9908780406 1.1559007714 11.7533717463
18 1 9.6454785401 2.1894364332 6.97657896
19 1 10.3501761596 16.4358239246 13.5662682186
20 1 12.4182539388 7.8630792529 11.9298227889
21 1 14.0178366644 8.1657133392 7.3586959557
22 1 13.7599199941 11.0866348209 7.6498720053
23 1 0.6855740853 12.6536040213 11.8740378018
24 1 6.4298409032 4.6358422743 2.1272428224
25 1 0.9109082362 11.919945924 7.5842275407
26 1 15.9421445831 10.0231745064 8.1445366803
27 1 2.9236138777 1.6415830819 7.8151477053
28 1 1.4805452788 0.5069574008 3.9584379777
29 1 3.2162626858 10.2305554161 7.918320744
30 1 17.4712320903 7.4693673796 11.143635873
31 1 8.4264510092 12.9377572391 9.6364051836
32 1 0.1072164842 12.3569519412 5.2015247052
33 1 15.396059091 15.5614359449 10.4839757481
34 1 12.0231931368 0.8384318174 13.2645906102
35 1 15.9575697943 9.99638972 5.5125211578
36 1 10.2504475771 8.8297452614 4.7185595208
37 1 17.3137463897 4.8841735708 3.5826441513
38 1 0.3658256762 15.9761694009 5.0935189374
39 1 6.3553559777 6.9087960112 0.2656060812
40 1 5.3850268802 9.1655294847 8.0978295984
41 1 5.3634015652 13.2539255349 4.4301669507
42 1 3.2154833126 16.4896958041 13.462081968
43 1 17.5603625015 4.8316122151 10.7121069381
44 1 5.4411842045 11.7653878055 9.5302825443
45 1 8.3928074218 2.4195327937 9.4768528416
46 1 11.1572884155 17.3523526674 7.0997309142
47 1 9.4195746576 0.9495717689 0.685953333
48 1 16.2631839611 8.8293430668 0.6836407413
49 1 8.4371053785 5.7956855393 1.4844729441
50 1 1.0366922641 3.3536839318 13.3955565966
51 2 11.492292561 17.1382861313 1.8235641522
52 2 0.0034721215 6.6153655398 6.356029998
53 2 15.4816865511 6.6006342596 2.2988903022
54 2 10.8591801196 11.5028970744 8.8664947539
55 2 1.7856707519 17.4541498303 6.653957412
56 2 16.82746986 16.5685032204 8.0715478032
57 2 12.1337929531 1.1617421944 5.1658162773
58 2 9.9575043901 13.7746017707 1.2684005397
59 2 4.5226356802 15.8725439526 11.150390619
60 2 11.3764825364 3.2990376119 3.9592301175
61 2 5.6498051701 6.7433467517 6.330727176
62 2 0.9225133915 15.7839512102 0.6717907695
63 2 4.7612214651 4.1711796086 4.0717034016
64 2 10.1595877115 4.2890252699 2.4057074376
65 2 16.888478888 13.2626388705 9.956922531
66 2 13.2369556709 13.5734109232 9.4204236597
67 2 4.7896012887 11.4307627765 0.5483069958
68 2 2.8847165683 10.1967805825 10.6760683815
69 2 4.6901188148 14.3143490423 8.8928720793
70 2 1.7198366218 5.8970197292 13.1473670235
71 2 6.5016669048 12.550651716 7.0806206472
72 2 12.0447160974 11.9811291835 11.3142181488
73 2 2.0236815199 7.2369184537 9.6652506543
74 2 3.7974048195 16.2459096765 7.3795549326
75 2 17.4403480195 13.1025627758 0.2102619702
76 2 9.9922525592 6.1635084473 8.6312224701
77 2 13.1018665546 1.6499299852 7.715691045
78 2 9.1613493386 12.2125698922 6.9103951302
79 2 7.9472508496 15.7258308309 0.0936191733
80 2 6.0409523702 16.3650253425 5.9310469953
81 2 1.0904676028 1.0282720743 1.0270633563
82 2 11.3454932925 4.3279197606 7.0280574795
83 2 16.4659613897 2.5724382677 11.1834250467
84 2 1.155248064 15.3322276541 11.2759312509
85 2 7.6913685828 11.8141763187 13.8161168892
86 2 13.1877986115 8.758679959 4.6800008268
87 2 0.9715809569 5.5521131052 1.6486889352
88 2 10.3981289255 3.5537478241 9.5038079979
89 2 12.4465359884 13.1961874431 0.7558493142
90 2 17.4676870347 2.2687482225 3.0854808966
91 2 13.9339795301 3.4823211983 7.0979099226
92 2 2.8784384215 7.1056363569 7.133396433
93 2 7.7615445823 11.2198831437 4.8757650324
94 2 11.5937254057 6.8471689812 3.1670357892
95 2 8.1493068647 10.2398220995 9.0184676622
96 2 3.1505219255 12.8985976136 6.4554156447
97 2 14.9506579001 9.2598986435 3.2149103685
98 2 15.1257938308 11.9378618174 0.9136478739
99 2 4.9059599046 6.5390577902 8.7899336391
100 2 5.7663336133 8.6577095588 10.6149180633
101 3 17.2190234828 0.2216426985 10.226140161
102 3 2.6787709103 2.9388031982 2.8787015517
103 3 2.8336353873 7.7590428015 4.4028672939
104 3 3.8060136866 17.6009469847 2.4146910807
105 3 3.0713519526 14.9709564838 4.6161663636
106 3 0.2682632718 10.6830507701 2.5430917008
107 3 6.0032544216 6.8662978005 3.5975312226
108 3 2.2150079415 11.0553873127 0.262052865
109 3 0.9599414486 14.5003361234 7.1525083908
110 3 2.509777476 13.9775807371 13.6660647297
111 3 16.2650677399 16.0405501339 12.6617202303
112 3 12.804819679 6.2189748355 9.005606592
113 3 8.0579718704 14.2136710832 5.2976259729
114 3 9.7001199273 2.4679886992 12.0495673584
115 3 7.691953465 4.9378615295 7.6193188266
116 3 15.0778401841 14.8869901245 1.4201764698
117 3 4.1922817007 1.0422639718 5.1209183514
118 3 9.0218425999 6.3866586269 4.57792554
119 3 12.0589683732 2.4692823107 1.0364794215
120 3 2.5928386773 13.0741431379 9.3784592718
121 3 11.9412576576 6.7153796928 5.6712496575
122 3 4.4268541718 8.613628995 13.1816877273
123 3 3.7371420449 14.2596886288 2.3170008837
124 3 2.8995058082 11.8582711521 3.3744255129
125 3 12.9387851872 9.4693417915 9.9141693849
126 3 10.8329802154 8.5803491974 8.7800813475
127 3 7.999668275 3.6525076514 5.0703786486
128 3 12.0295332952 11.0990505313 2.8506600564
129 3 13.3919735914 10.2404962996 12.9136714107
130 3 2.3058720351 3.7153380942 11.1015992034
131 3 6.4715005479 1.8526112253 3.3145475217
132 3 11.7419086605 13.9236859556 6.4963638618
133 3 7.332278389 15.1611406233 7.9989917709
134 3 13.4446882145 8.384353936 1.059019899
135 3 13.7992642452 11.8238210615 5.0473643244
136 3 12.8996236238 3.3582639823 11.2889973306
137 3 5.85812471 15.5959741202 3.3592480467
138 3 8.4823442557 16.5526546743 2.6668011963
139 3 2.343076181 8.282769938 1.6394854881
140 3 4.9629998373 0.832390266 9.0253132887
141 3 9.6031739395 9.6537371826 11.2667781051
142 3 9.8354651938 13.2084740214 11.9424467244
143 3 16.2161617217 4.31816914 0.3417990243
144 3 5.1553198539 3.8976539824 9.8415368439
145 3 7.192442566 14.4056005323 12.0290693673
146 3 8.4459504887 8.0384604113 7.0802922093
147 3 3.8399239944 5.6937414512 1.2168915858
148 3 10.5592918087 10.2726530177 0.3664415889
149 3 1.5561701961 4.9896489734 8.0522033604
150 3 16.5837004686 7.0599114285 8.97594996
151 4 1.419942145 0.7402956295 12.4067666118
152 4 4.3261663472 2.239427126 14.0319289104
153 4 6.7054278868 1.791293901 6.5310848625
154 4 7.5982296144 5.0080443997 11.9739936708
155 4 14.3816603522 6.1209499867 11.4958341627
156 4 12.3891044313 13.9537194808 3.3844878864
157 4 5.4408854213 9.0451894417 2.0380594629
158 4 8.0176125316 8.5815179048 13.413991389
159 4 10.6489787389 7.1246670499 0.2027624268
160 4 15.010419473 13.2652986752 12.6110482224
161 4 0.5924044634 9.0232560065 13.0554504858
162 4 1.7419948491 10.4185575221 5.4010509408
163 4 13.2949435709 5.3657909499 13.914497778
164 4 15.1970964333 13.7963893377 7.6273991598
165 4 10.2336519446 4.7975144631 13.4171172555
166 4 5.2510377652 10.631016513 5.8625476149
167 4 8.1482972382 17.5435910042 10.918243779
168 4 0.4758478332 14.0122126344 3.0118080909
169 4 4.5191788854 5.8811051196 12.4364160579
170 4 13.2807605296 16.8239228666 9.032367729
171 4 0.2688622476 7.3752113856 3.5817091389
172 4 10.7150563349 15.2432704173 9.0389436729
173 4 6.4722025827 2.2188364536 12.2364882573
174 4 15.0853867501 6.0660265524 5.5050833286
175 4 10.2973711616 12.1067488454 4.4406110223
176 4 16.5624213263 0.5927377758 5.4589249113
177 4 15.2188514089 4.1263203764 9.3838601097
178 4 8.4898998063 10.4078229957 2.6211085944
179 4 2.452957755 4.9925723274 4.6332438663
180 4 14.0999474321 0.8752644221 10.8837569541
181 4 4.222822946 3.9857518651 7.3056648591
182 4 5.5431157846 14.8432618994 0.6071320413
183 4 11.3547832303 0.8380373742 10.7054781567
184 4 15.4448886517 8.9400751863 11.3493635403
185 4 12.950784081 15.6664809658 12.1441769178
186 4 14.6059744826 0.6072587099 0.2729382354
187 4 8.0264897047 7.3240396536 9.9254787234
188 4 10.8896158395 6.2160798447 11.2957271373
189 4 6.2727773043 0.1540257348 0.3628663923
190 4 16.8569091661 17.1373147335 2.3847487035
191 4 15.5072175403 14.6563789972 4.738737528
192 4 4.2434682309 12.5926883631 12.2342597829
193 4 0.3736754296 10.3654407044 9.7964516619
194 4 14.2563609662 4.3553438656 3.1654815213
195 4 14.2702971941 1.4687163885 3.1176162414
196 4 2.4105846245 16.6207138231 9.2330314503
197 4 16.2466982105 3.360164321 5.8434618645
198 4 7.5174469874 12.8910351923 2.5589674674
199 4 0.2174019502 2.3565372803 8.5216062153
200 4 13.0854616657 16.3214072233 5.713124433
