# LAMMPS data file written by OVITO Basic 3.5.4
200 atoms
4 atom types
0.0 17.616934 xlo xhi
0.0 17.616934 ylo yhi
0.0 42.27 zlo zhi

Masses

1 183.84  # W
2 92.90638  # Nb
3 178.49  # Hf
4 91.224  # Zr

Atoms  # atomic

1 1 10.9476009207 15.2907795888 2.4880802547
2 1 3.0266130441 3.5254728212 6.5842960293
3 1 13.617814053 14.4493331616 2.7343283667
4 1 3.1932998932 7.9026741929 10.1361004113
5 1 9.1283112452 -0.4991189222 3.5252135931
6 1 9.4879274807 8.1934852024 1.5453924681
7 1 17.0999654241 7.6898093079 12.3237208563
8 1 13.6729411391 -0.4376381127 5.8669174875
9 1 13.8986029649 12.3742061425 11.3535393936
10 1 9.3833420856 16.453196864 6.5124437925
11 1 12.9159321481 8.5426762648 7.0504225365
12 1 7.7177374334 -0.1514864299 8.1715057857
13 1 17.1930474898 8.8970037205 4.1868050343
14 1 8.6590709954 9.4480735717 12.2067191871
15 1 14.1977377996 13.3437604473 8.1951888213
16 1 7.7611170193 3.791055148 0.4642835352
17 1 2.0359735595 0.9362274699 11.0390467893
18 1 10.0672645833 1.8331561404 6.1623074334
19 1 6.7079298438 16.3905980839 11.6625089997
20 1 11.2228949348 10.7105488662 12.5592856485
21 1 13.142058004 11.0242187284 6.419849244
22 1 11.4335730298 13.0541095129 6.6606386082
23 1 1.0298184888 13.1553917329 11.4302387313
24 1 7.24810644 6.125224031 4.272596649
25 1 -0.7292646101 12.8332673278 7.0044780054
26 1 15.1351817188 10.9896039195 8.5836247593
27 1 4.1580682055 1.6255950096 9.2163656574
28 1 2.2800750302 0.8178189476 5.6447349546
29 1 0.2612823856 8.8580202643 7.7342923812
30 1 16.7286039788 8.3703696138 10.0851959184
31 1 7.8927149878 10.8734852462 10.5781850106
32 1 -0.4601527306 11.8400718023 3.9143030253
33 1 15.3072709768 15.2040255258 10.2796620123
34 1 14.7453015286 0.8240396631 10.4190105624
35 1 16.3598922965 10.5428083483 6.1898459157
36 1 9.3467823672 10.4097814703 3.3684100692
37 1 16.1186567486 3.9137269683 3.3692047452
38 1 -0.2168589963 14.4188666122 4.6357462503
39 1 4.9223920998 4.919218233 2.8796809476
40 1 7.4719408613 6.3896635473 7.347586977
41 1 4.6074518805 13.6942243332 5.0803120986
42 1 0.8060177158 18.158205841 13.1546197101
43 1 15.6817678841 4.8296703004 9.0973067073
44 1 5.0718155868 8.6998661772 8.7762064566
45 1 7.9193045786 3.010351557 7.8813721143
46 1 10.5312257427 14.7867478322 8.2814356839
47 1 9.5554026281 1.195740763 1.7496685836
48 1 18.929966724 7.8241542849 2.8603618668
49 1 8.14132886 6.1256965172 1.9242424155
50 1 1.5677691854 3.2122682222 12.013248129
51 2 12.4337490892 20.1939982984 1.6095853809
52 2 -0.2143145825 6.6274727777 5.7234480351
53 2 14.3706043168 4.504753259 1.3098365526
54 2 10.7552127266 10.1726552484 9.4554177246
55 2 1.5538537454 18.0643241427 7.7802453663
56 2 17.1506930332 17.1155574677 9.5022719061
57 2 10.0165517724 3.7827699039 4.2597199389
58 2 10.3293552338 12.9723401614 1.6939207941
59 2 5.010630918 14.5150085631 11.7284607672
60 2 12.0408794815 3.0821516617 5.7440863626
61 2 9.2220486608 4.9117616895 6.8031823476
62 2 3.1989057777 17.9472800519 3.1982445756
63 2 5.5056563694 4.3932410617 6.0686751564
64 2 9.9558173925 6.4961387109 3.5969254935
65 2 16.9181778677 13.4185647678 9.953278857
66 2 11.8385863424 12.9491023685 9.7558758435
67 2 3.9486121972 9.4274645777 0.4787736912
68 2 4.8314150816 11.4157135106 10.5461646402
69 2 5.6010140144 16.096196391 9.0823879335
70 2 1.1779089024 9.6695985892 11.7450927441
71 2 5.6587066545 12.4155625998 7.8097975914
72 2 13.0192827723 10.0992111314 10.5936194784
73 2 5.4032096701 6.4450934685 10.8158062383
74 2 3.6936911103 16.0727357438 6.9820000875
75 2 20.2325593006 7.7809686614 0.4834132464
76 2 11.9576336548 4.903407387 11.5757020596
77 2 11.8648535434 0.6577225935 7.8346409385
78 2 8.863033339 12.3662369463 8.4059702898
79 2 8.9849719426 19.2379767938 -0.8411966712
80 2 5.6527861315 19.1177098611 7.4842915386
81 2 2.2845980018 -1.9161778798 4.8814402026
82 2 10.60176148 3.1987491632 8.6748620181
83 2 17.073903989 5.2214362072 11.2653193674
84 2 0.8109226226 15.787526567 11.2984438302
85 2 6.3973831116 11.6637604698 12.8644712442
86 2 10.1073364137 10.6746915349 6.6664549602
87 2 0.6496586181 5.0643280375 2.9635488546
88 2 10.0124672863 3.7043564022 12.3852203247
89 2 11.7622928625 15.0215276546 -0.5727513141
90 2 17.755482906 0.719274223 3.9582456492
91 2 14.4660195692 6.8776741118 4.3450799769
92 2 2.1981444837 7.8634670017 6.6521748861
93 2 6.9950173381 12.1183413165 5.3004301647
94 2 12.6574101599 4.7926461996 3.045519684
95 2 6.9340040821 9.765209918 7.2668901654
96 2 2.2572662095 12.5268896431 6.6800088357
97 2 17.2423897032 6.2248539587 0.4432055997
98 2 13.0659769843 13.1334625257 0.8177664102
99 2 2.1909437381 5.6023349321 10.8780762888
100 2 7.7304503415 8.2815009902 9.9172157838
101 3 16.9736560592 2.5861497036 10.3113277374
102 3 1.8144281064 3.0074650223 3.5729292372
103 3 3.6077819555 8.9507591521 3.2606625711
104 3 5.2419791378 16.7376187401 4.8005565576
105 3 2.607199121 13.0958161948 2.8926312075
106 3 1.1441546806 10.1996528475 2.3075907363
107 3 5.4854888557 7.2467703717 5.707925223
108 3 3.0908177839 16.651042432 0.9449665623
109 3 0.9794039326 15.0377569027 8.0733658359
110 3 0.0887777202 15.5757689062 13.7967445482
111 3 15.7176708432 17.4700887513 12.5481593391
112 3 12.6364104223 4.66389548 8.7129946305
113 3 7.0483955911 14.7655854902 6.3280172463
114 3 8.2491466101 0.5579598341 12.8248262112
115 3 5.8996664974 4.2248094314 9.172957749
116 3 15.5412849911 12.3154520821 2.0318736711
117 3 5.1985218612 2.2743338475 4.2804812721
118 3 11.7797741461 9.1694855434 4.6038535353
119 3 15.0208846365 -1.746735566 0.6232757997
120 3 3.2708099985 13.4652420676 9.3196921362
121 3 11.6215242229 6.3121407578 5.8461929292
122 3 5.5988314524 8.8426332818 11.865176319
123 3 4.7355476025 14.6199505249 2.3598136305
124 3 5.1406833528 11.7675425327 2.6168786355
125 3 13.0122190864 7.462540113 9.3391815651
126 3 10.5589359467 7.8345662453 8.0226059064
127 3 7.6037986796 3.6078564751 3.0589158924
128 3 11.597873489 10.5561702642 1.0517300148
129 3 15.3059697901 10.1007147368 11.8994881461
130 3 2.0399049545 3.2341817502 9.2499402957
131 3 5.2914895929 2.6322373647 1.2483518787
132 3 12.0781785827 15.2258210204 5.4757496394
133 3 7.1709000506 14.1987014459 9.7734060579
134 3 10.3207805435 4.6673307821 1.244572518
135 3 14.7377022879 12.8151595861 4.9836275049
136 3 14.0758767105 2.8978748325 12.4343422917
137 3 7.497871755 14.8117408003 3.2059051677
138 3 11.8183076659 17.8398849321 0.603493017
139 3 5.4500841034 6.4754411036 1.1569949958
140 3 6.0217009371 1.1617931073 10.5364488807
141 3 9.4347426616 10.4059487301 14.6680801521
142 3 9.5868152069 12.6755978826 12.0478774038
143 3 16.5428605398 3.4774367272 0.5835593304
144 3 4.2977967413 3.2705046971 11.5255161567
145 3 5.7434951962 15.1300095631 14.2391461725
146 3 8.8840711293 7.9144756009 5.693646417
147 3 2.5447141463 5.2023361035 1.0821010098
148 3 12.8368146737 7.3860616553 2.1818121243
149 3 0.8251139438 6.1650187471 8.6264442693
150 3 15.4984751368 7.4889639285 8.0789970453
151 4 -1.12659324 3.2664415274 13.3539675663
152 4 3.1065988572 2.2575072092 14.0523436296
153 4 7.4973425423 1.0737750293 5.0826229995
154 4 7.1568686912 4.1431577611 12.9522977367
155 4 14.4574216246 6.5222433075 11.8621929024
156 4 12.35127048 12.3038684195 3.8933265378
157 4 7.0533041974 8.9980287332 2.9100117861
158 4 7.5649404797 6.8104982761 12.6809433582
159 4 8.7041132676 6.4182380381 -1.0994456589
160 4 15.8352326957 13.9958496738 12.5568327204
161 4 3.5864649369 12.1144594251 13.0655213133
162 4 1.4583715487 10.3427855035 5.2622920572
163 4 13.4866612645 11.3956191072 13.5888906999
164 4 15.4182506143 15.5537040487 7.4097555795
165 4 12.941240107 8.8059312185 13.0566391182
166 4 4.4438407719 11.0337554795 5.780621169
167 4 3.8869331972 17.3148745781 13.2717122598
168 4 0.4482581291 16.1614799918 2.2675800678
169 4 3.3579903913 6.3865878068 13.1289537888
170 4 13.2876964927 15.8896857579 9.1716342753
171 4 -1.6486687889 6.9152943697 2.4142819071
172 4 9.935135112 15.0785931319 11.0447549301
173 4 5.9554855766 2.0481368192 14.0685829182
174 4 14.8342092617 9.8620620076 3.0318901452
175 4 9.3178116715 13.6682368892 4.832479707
176 4 16.9637801822 -0.4687735772 6.0239255982
177 4 12.6324681048 1.9024463606 10.132715007
178 4 8.7330739216 10.0564565943 0.5894285199
179 4 2.7387431817 5.785611648 4.7696795907
180 4 14.5954376183 1.5255748668 7.5070602741
181 4 3.9510572515 6.1638061735 8.1181720359
182 4 9.1378398925 15.6566956398 0.5209050456
183 4 9.2695241839 1.5633177385 10.3173634707
184 4 17.6338298729 11.2191707149 9.3190086303
185 4 12.4892954583 14.0780028983 13.1536766664
186 4 15.2275175311 1.1095507942 2.7400952628
187 4 8.7992302653 5.0876880919 10.1996525109
188 4 10.89857775 7.9598099618 11.4521498085
189 4 6.7404470044 0.0137693956 2.5792021164
190 4 17.4493081683 18.5384735273 0.7444334553
191 4 14.9513239964 15.7883221477 4.0806422385
192 4 2.8632767596 14.6263489953 13.085092746
193 4 2.5168025808 10.1860476417 8.7975967674
194 4 14.135872941 1.1303953267 -0.1764320211
195 4 14.5570686407 2.0194823476 4.9114261179
196 4 3.3361647718 16.1858089776 10.0485490965
197 4 14.4640665559 4.9485569463 6.0574647297
198 4 7.9809457022 12.1924182338 2.107062279
199 4 -0.3513829613 2.7950994012 5.8499456598
200 4 12.1316452727 18.0696955459 3.5778832812
