# LAMMPS data file written by OVITO Basic 3.5.4
200 atoms
4 atom types
0.0 17.520744 xlo xhi
0.0 17.520744 ylo yhi
0.0 42.048 zlo zhi

Masses

1 183.84  # W
2 92.90638  # Nb
3 178.49  # Hf
4 91.224  # Zr

Atoms  # atomic

1 1 9.6791917031 0.6173067965 1.4527861517
2 1 4.5504513637 17.271751626 7.2019229933
3 1 13.0983335326 1.617112985 1.2019231584
4 1 2.353001929 6.6973250685 11.6042195059
5 1 9.5569316011 2.5709713728 4.4322826234
6 1 2.5826580595 5.7541191178 4.8935588544
7 1 14.3677056535 5.1110582293 3.0495820781
8 1 6.2538662775 17.0233411159 9.4447956902
9 1 15.8954864971 12.3561895078 11.688356713
10 1 7.6946343758 13.5889126125 12.5330858957
11 1 10.0131856162 9.7346425802 5.2767326074
12 1 8.4845185734 2.2131648413 10.2777426029
13 1 16.8928525716 9.4914942503 1.7700362093
14 1 7.0947486303 6.9468714484 1.6648829914
15 1 9.4567155735 11.0082280896 2.9484578995
16 1 10.031313454 15.6720367398 1.3785861485
17 1 17.2533858565 1.2444751437 4.0465872518
18 1 11.8889226538 2.4113458313 5.6947355597
19 1 14.5135859962 15.9240225329 8.2606357094
20 1 16.6288012934 6.5789645584 2.6568781459
21 1 17.1346265743 13.8790049726 5.0259356294
22 1 12.8819509425 11.9505397815 8.1702661478
23 1 12.7595224661 5.7456338215 12.1092454195
24 1 4.1782114186 5.6110219454 6.8601497011
25 1 0.9441965735 15.63751737 0.8764993901
26 1 15.9710848282 15.7721954745 5.4728078976
27 1 2.0774202491 3.8845453523 6.720353977
28 1 5.530663929 1.298767374 5.1229206029
29 1 0.2785782527 12.8125595103 9.9486047347
30 1 15.4802231386 2.7372984237 12.2704624973
31 1 0.0652202687 10.5972567878 12.0145196851
32 1 1.2176538632 15.8492578389 9.4692066566
33 1 12.3995931213 17.5253146365 8.0852022029
34 1 11.4402850813 1.1616843721 9.8518993805
35 1 14.6087460627 13.6482152499 9.8603754163
36 1 12.8298922567 12.3296795709 3.6347321376
37 1 15.1816838527 7.0643823776 4.4587875802
38 1 3.2454541388 14.815856675 6.4627246195
39 1 12.8251732195 4.5814947932 0.8751916973
40 1 3.4455413857 10.3986360272 8.6262989933
41 1 4.9927674518 10.9762672741 3.9089418624
42 1 7.0542226238 1.6298798255 8.2028470406
43 1 -0.4716824319 2.4624270348 14.1044381568
44 1 2.5263716181 14.3563245286 11.5166797747
45 1 11.7906966324 1.0186546545 3.3364999699
46 1 9.5285783067 -0.6860864043 3.3729795533
47 1 16.9966365235 17.2191391095 8.3713586054
48 1 15.1924938013 17.5453070318 13.1378631206
49 1 5.9930043002 2.9497085355 1.4365240877
50 1 11.8664291723 7.8108629617 13.1876736019
51 2 11.8407229119 10.6377968109 0.9616987296
52 2 15.7557217702 8.4982918054 6.8476799462
53 2 16.1495018932 7.6126621733 0.0973634054
54 2 8.0066409816 8.017647513 9.3434970125
55 2 14.6306767779 -0.1970458209 2.6198384832
56 2 -0.4849279392 16.2417345938 3.1184630093
57 2 13.6990753417 17.525076004 5.3625033792
58 2 4.4178985254 12.2781703356 6.8320292602
59 2 1.4424847808 8.9631542877 0.1654029562
60 2 12.8079548836 9.1017943581 8.1524819462
61 2 7.4913862115 8.7177457819 4.4352663494
62 2 2.5310773395 16.7764946826 12.4300148947
63 2 1.4953543267 5.7855933823 0.0931556621
64 2 9.4495767464 6.9095573447 4.8318702336
65 2 15.7024743019 11.8162453813 1.0782755482
66 2 6.5631438522 16.3369566837 3.525450647
67 2 4.30356656 5.1523306195 1.2318533453
68 2 3.0137754136 2.7035904395 10.869586704
69 2 2.4641314528 11.7749768456 11.5008251558
70 2 2.914312778 1.5474217728 5.3734266086
71 2 7.702745429 11.2378614432 13.2834450701
72 2 13.4489280002 13.3002513468 12.7940256922
73 2 13.5243074971 6.6520698628 0.5049510682
74 2 2.0370240713 14.5240846012 3.8156407142
75 2 12.3057294147 13.2444258762 1.1982443789
76 2 9.8898406297 7.5555951828 7.4417832864
77 2 13.2597390065 2.7851721046 8.5330546099
78 2 9.0638474052 15.4067272969 5.570823047
79 2 6.6662560588 12.9329473456 8.1476998272
80 2 10.0775799571 2.0957578102 7.775884921
81 2 14.0713371878 2.6742989093 3.8415397594
82 2 8.0854470104 4.9172661857 3.5244440179
83 2 4.0032494442 2.4969835486 0.1116357581
84 2 17.7217763158 16.9270399234 13.4135420026
85 2 -0.4541166596 7.8508502053 12.2412412397
86 2 9.0825579829 13.550048799 7.8663776832
87 2 1.7703870816 2.0110448377 8.6814268646
88 2 13.5106691748 6.7460087334 8.1220858675
89 2 15.005947111 14.1235285056 2.9357892576
90 2 15.983704144 11.5284582255 6.846634633
91 2 10.5242196391 10.6997596229 8.7055140614
92 2 0.4005168491 2.0920180073 6.2528193216
93 2 2.5447587629 6.7468688267 2.5153063142
94 2 8.3450348791 10.2386055812 6.9953634547
95 2 9.6937102676 6.5518413955 12.144733511
96 2 4.802840134 2.6179203088 7.1452755072
97 2 16.1379036863 14.4409143303 0.3638177971
98 2 17.0710663961 14.3716423895 8.1708165562
99 2 7.8186151901 9.1000233613 11.9254943981
100 2 14.1477826467 7.7160813433 11.2288195872
101 3 3.4109950339 8.8842229856 5.3391503405
102 3 2.1872054062 1.7049993146 13.9434918682
103 3 3.9563143495 4.5821490177 12.5886910118
104 3 1.1602114032 4.1982530472 12.2743721203
105 3 8.3867219853 18.2238747593 6.0266687789
106 3 3.8417600459 11.8880718465 1.8925224538
107 3 5.1281999996 3.8450134729 4.1479279776
108 3 5.6398278006 4.4468072274 8.950400352
109 3 6.2298518201 15.2179607283 6.7423484448
110 3 15.1235749035 10.0546591445 13.2554053613
111 3 8.3348993039 15.7235797901 13.4854945402
112 3 12.1774700347 7.4266731683 5.6346821856
113 3 12.0016998284 15.313930954 3.7624882579
114 3 10.8637141898 4.5302236648 6.7129863264
115 3 13.9572123176 4.5265966956 6.0673821754
116 3 0.0955299294 0.967715369 11.1851985715
117 3 4.0022215021 16.3801358565 4.3271096429
118 3 6.1692678907 9.8859137053 9.3855681389
119 3 7.3678532274 1.7116428303 3.0427139578
120 3 10.1308729793 13.387693876 3.2819759078
121 3 10.209068235 6.0698956621 1.5499485677
122 3 6.7057376537 6.5313126901 6.0113633069
123 3 6.5186238169 -0.5076428829 1.1378508365
124 3 15.6678077578 16.8476536075 0.1017418637
125 3 13.7456523123 10.1983725216 5.5821604493
126 3 11.5867150497 8.8867631431 2.9838333024
127 3 7.713777015 3.4068042472 6.0711946675
128 3 14.0907950252 13.5269729279 5.7409416864
129 3 12.3703998824 10.9873014882 14.7829398221
130 3 3.9333211764 7.7919195333 9.3101319245
131 3 5.8310060996 1.4587534924 11.7086827162
132 3 11.8331700695 15.0475385539 6.9602664096
133 3 10.8232293571 13.8571916463 12.4618443898
134 3 1.9562147206 9.6564303294 2.5830490061
135 3 16.0691237281 11.3290238015 4.1665602874
136 3 14.4247538968 4.7323065244 9.9841815475
137 3 4.2707155155 1.2045269714 2.7640488269
138 3 10.2775340463 3.0581265489 1.4517791021
139 3 6.6354347924 9.8384825984 1.7075057875
140 3 8.6320863389 11.7075722658 10.4971427597
141 3 12.8922124919 10.7771918501 10.7341837344
142 3 10.5216355046 10.5091838623 12.2965764077
143 3 16.9902663314 4.2586882255 4.0491647942
144 3 5.3884198416 16.0206608245 11.8175655917
145 3 9.2773909339 12.0892385464 0.8066366381
146 3 5.2000094697 11.9040796742 10.8694782202
147 3 -1.1367181879 6.8860318913 9.8377523309
148 3 11.7265481076 7.4883470632 10.336880592
149 3 1.7973937316 5.3739233532 9.1605798029
150 3 15.6293556818 5.6201157371 12.767045593
151 4 16.8960562397 3.0988359976 9.5497908077
152 4 15.3404295024 14.788510473 13.9515213542
153 4 1.1224408841 8.7585402062 10.0331754566
154 4 5.9213477862 7.2519648943 11.5728916435
155 4 14.8717814882 0.7397503407 10.1539881907
156 4 13.2500346168 15.5553424525 0.731382071
157 4 5.0428357811 7.839251648 2.7148530874
158 4 11.325818031 13.6252907581 9.6761307514
159 4 7.6222708997 4.576174444 0.1805873299
160 4 3.3180611532 0.1984387201 9.8061065856
161 4 1.7741878566 3.8587054087 2.536315177
162 4 0.9028441135 10.4280130586 7.436997383
163 4 11.214266082 4.1702331726 9.8113558579
164 4 16.0945785658 15.4567670674 11.0490698534
165 4 10.6273639087 5.3568422047 14.047605239
166 4 5.7852492749 9.1268096004 6.9265127981
167 4 7.5942589094 13.8522814578 2.1756530822
168 4 1.8559431523 0.3516022608 2.6438491526
169 4 8.4258822498 4.8284449492 8.8560610387
170 4 13.0270388219 16.0555756376 11.0348689824
171 4 0.8701453242 7.5033994848 7.2125245555
172 4 8.9535970723 4.0565123307 11.8061861414
173 4 9.8234506761 -0.3053278734 11.3900148
174 4 14.1091371417 9.6081822302 2.0467448467
175 4 10.6164600488 12.2754842304 6.0691700563
176 4 15.3284754492 1.4812939296 7.0150948992
177 4 0.4096752924 8.271217707 4.4592715526
178 4 7.631158998 12.5950219528 5.2155985997
179 4 1.618053849 16.6879020918 6.6064114656
180 4 10.6354055797 17.3377964209 5.9474797805
181 4 15.6513650652 10.1912110927 9.531105097
182 4 4.4087355267 15.4170811806 1.9046675981
183 4 12.6316210349 16.3222333017 13.8095063366
184 4 12.2834868302 1.914900631 12.2281685165
185 4 16.1828559584 4.1709487198 0.7917159053
186 4 17.0606664329 1.617160291 1.5712938144
187 4 3.9684134745 9.4855142452 12.0690866362
188 4 8.9698868088 8.549076558 1.8597073536
189 4 1.7044973453 7.5288129735 13.8103767302
190 4 4.5656520108 13.6799185106 4.2152527123
191 4 8.2933076858 15.049739685 10.4004130176
192 4 0.7455905303 13.7266978458 13.2773897376
193 4 0.5646320813 13.0098246909 2.137658089
194 4 11.738122311 4.6717641192 4.0304080224
195 4 1.683249939 12.038413321 5.0986193818
196 4 4.5299380767 14.9605687344 9.4384128038
197 4 16.7803340033 5.2481811785 7.055896176
198 4 3.8337124178 7.3684909824 -0.4113089107
199 4 9.2806256136 16.9657819677 8.7591530131
200 4 2.5287384954 13.2690360389 8.5736174746
