# LAMMPS data file written by OVITO Basic 3.5.4
200 atoms
4 atom types
0.0 17.616934 xlo xhi
0.0 17.616934 ylo yhi
0.0 42.27 zlo zhi

Masses

1 183.84  # W
2 92.90638  # Nb
3 178.49  # Hf
4 91.224  # Zr

Atoms  # atomic

1 1 9.2832786052 14.8886010169 2.4474012975
2 1 4.0889904456 5.2569574074 3.9504785367
3 1 14.2892732746 18.0994156659 4.1520920649
4 1 3.2087104824 7.0617721291 13.2248927397
5 1 8.368766649 -1.3501738013 4.3437218418
6 1 10.0461529781 5.4177383556 0.002920857
7 1 17.8368521769 9.8461759374 13.6205923545
8 1 11.9719519941 1.0803098548 8.234035374
9 1 13.6980875506 12.1060670701 9.6553548246
10 1 10.7683720478 16.5248678366 6.4086671382
11 1 12.6092266122 9.2021454012 8.2022559426
12 1 8.601347878 -1.1323196244 8.1318193281
13 1 18.405059253 7.9434727219 3.5289460341
14 1 9.9074631367 10.5455551806 11.1299230623
15 1 13.5362462392 11.6547890462 6.9868742412
16 1 7.8056089385 2.1828210984 1.7147484912
17 1 -0.7197051332 -0.6995726772 11.91278502
18 1 9.7357323832 1.4735427237 7.3150454175
19 1 4.7351198633 11.647470091 12.1864693209
20 1 12.3783933354 10.3501421589 11.581455852
21 1 11.1949243525 11.9031076585 5.8204204875
22 1 12.4007532765 14.1970496821 6.3921395682
23 1 1.4499698567 12.914353847 10.5721780209
24 1 10.468862501 7.6543562853 2.3104257852
25 1 -1.0817133959 12.1039835153 5.9521566333
26 1 15.240098136 9.5490619412 7.0037086914
27 1 2.2043977906 4.2621952079 6.6696074568
28 1 1.1453728916 1.5710202144 5.6763004998
29 1 0.0882462173 7.1413377783 6.4470491436
30 1 17.0887844846 10.4630402805 11.5944192156
31 1 7.8734309634 11.9576583185 10.2163013958
32 1 -3.216627004 11.5548002615 4.6386561171
33 1 14.5583041163 14.0127295153 8.2031009199
34 1 14.1400039358 1.1526559083 9.6318763758
35 1 16.676458735 9.2422822381 4.9760298951
36 1 9.0186227529 10.2224808705 6.2310312675
37 1 16.9967985446 5.1911637963 2.8983448434
38 1 -0.9127590713 13.3586631403 3.2945178822
39 1 7.2032930118 6.5534747843 2.9635932381
40 1 5.4293003493 7.742173354 8.7282591729
41 1 4.0166158526 14.8136862383 7.2949084122
42 1 -0.3455350201 19.481735439 12.9449376843
43 1 16.1126458507 6.1881651081 10.6887705165
44 1 5.6625596542 9.659273128 10.3871385597
45 1 8.2611384571 3.7052141707 7.4307045915
46 1 10.650622575 13.8580919443 7.9663064934
47 1 12.5852390426 0.6738237665 2.058734988
48 1 19.4556271428 5.7862229556 4.7291794356
49 1 8.8233973516 4.3847031908 2.0505904044
50 1 0.6654994128 2.3550282137 8.3062693089
51 2 11.8323839485 19.0268306169 5.1127813764
52 2 -0.7249123466 4.0367329819 5.676484797
53 2 13.786368121 2.1408307838 -0.7258262013
54 2 8.1587819565 8.3890876062 9.5213453982
55 2 -1.4159210798 18.672731829 6.4944245142
56 2 16.7537732924 18.1864854243 9.6632791815
57 2 9.8285942372 6.0767577315 4.2385211112
58 2 11.7506376752 13.4088118569 0.9957493176
59 2 3.7341422333 15.160493201 9.7439772612
60 2 10.7687879836 3.6473469467 6.0482984802
61 2 7.8619815418 6.6720732172 6.7882504701
62 2 2.4718251389 18.2011733669 3.6783053883
63 2 5.2127767795 5.133052754 7.4131249212
64 2 12.2405695424 6.1424311951 4.3840072653
65 2 16.9239995597 15.5589863102 7.7574111123
66 2 11.2563107352 11.4560219364 9.2017207932
67 2 5.8521826943 10.9883754907 2.0680284702
68 2 7.0701702977 9.8094319458 12.3673751988
69 2 5.2887485742 17.4102172488 8.5980578508
70 2 4.4816835316 9.6821705618 13.7297487117
71 2 5.1798149675 12.8007477009 6.8585095506
72 2 14.5921992734 7.8338141783 9.576095193
73 2 7.9851589681 4.0104997817 13.9952191062
74 2 3.7974231411 17.4275047461 6.1782516774
75 2 23.0926988366 8.4062524896 3.0624069717
76 2 10.7491877352 4.8659800346 12.4398800844
77 2 13.1856245056 4.1285476854 9.5099899854
78 2 7.9714933363 12.3798430329 7.5676555872
79 2 10.6490571342 20.1692859681 0.6516846213
80 2 3.9970966421 20.49844182 5.1103766361
81 2 1.5149049945 -4.1160708442 2.3389013934
82 2 9.7315890565 5.9428205866 8.5026058503
83 2 18.6855287699 7.1544097195 12.0386485947
84 2 0.2956921334 15.3015673183 10.069825701
85 2 8.7918551121 9.1545722802 14.3645540766
86 2 9.9182931469 8.9103592944 8.2383929883
87 2 0.6542894054 9.7704920034 1.2167626623
88 2 10.6577167381 3.3978566321 9.2261959686
89 2 14.9177690222 12.8101021167 1.2846508185
90 2 16.9282068359 0.2517708267 1.7633771673
91 2 15.4548860855 7.0187249747 4.1292700692
92 2 3.1159099353 6.1485900753 10.5358892259
93 2 8.4492471456 8.9152716002 3.3544892901
94 2 13.8645460843 2.7495471188 2.075841657
95 2 6.9249451023 9.7258286714 7.7889821526
96 2 3.3612866958 12.9505067904 4.4267574525
97 2 17.1170904933 12.2258484801 0.3131932245
98 2 12.5596853275 13.3843780503 3.211492839
99 2 5.7879864107 3.9485207653 12.1249161696
100 2 5.4391052301 6.8514125483 11.7841565646
101 3 15.7236893164 3.1295702821 11.262279309
102 3 4.0329603155 2.5659559407 1.9314063351
103 3 2.8790530764 8.5045676656 4.9470795948
104 3 4.3319806401 15.5441794534 4.3837388508
105 3 3.1327429157 11.0949457857 1.6744271382
106 3 -2.2218260473 14.9541483433 -0.8336819106
107 3 5.7442925386 7.4726317975 5.4002216034
108 3 3.1976165705 16.8291554483 1.6206702657
109 3 1.0055851629 12.9647833776 7.1910620124
110 3 1.848349689 15.1699732255 12.635039829
111 3 14.322708806 20.2616800925 13.7486417109
112 3 13.6940273759 5.2639634859 12.4822122213
113 3 6.643426497 15.6385239485 6.3455098404
114 3 8.4243655165 -5.4845125252 12.9537759186
115 3 5.2967309831 2.3312900998 7.415117529
116 3 16.8305297453 16.9389792387 4.1373588564
117 3 6.7231242732 4.2035456159 4.831186245
118 3 13.8634344558 9.1551980337 5.241433503
119 3 14.5106762067 -1.9025485388 2.1064075167
120 3 3.6131748513 12.5598491649 9.36314316
121 3 11.7860082506 6.7152773384 6.8880786837
122 3 6.6042367464 7.0634163175 14.4042016458
123 3 4.3492311419 13.7437265084 0.5793344439
124 3 5.6472600517 10.4319781024 5.3420407527
125 3 11.6265246134 7.2624792156 10.6140697044
126 3 8.7901325283 7.1113401916 12.0037547097
127 3 9.7827361248 0.1962343231 1.9414501098
128 3 12.6726776996 7.6648306096 1.3702851888
129 3 16.6192635971 12.3198531446 9.2822569788
130 3 0.6452991316 5.0161754956 8.8284187833
131 3 5.5209374741 4.9623552337 1.6443930351
132 3 12.0526819465 16.0338160608 4.0544728815
133 3 6.3426376084 13.8862154416 9.2570272839
134 3 11.4333898137 4.0500594878 2.6955511368
135 3 14.6964878232 14.7683490586 5.2453696854
136 3 12.5537071971 2.3333093528 11.430640719
137 3 6.1755762233 13.4822647824 3.2240415339
138 3 5.9519606043 18.856795141 0.2133223182
139 3 7.5231740764 7.1522571064 0.4165049088
140 3 7.1488674321 -0.3571285482 11.0521788102
141 3 11.1219356332 11.3266653705 13.5639370281
142 3 11.1708446463 13.2036246079 11.1775431762
143 3 16.0477748385 3.1414890188 0.9985420965
144 3 4.7765578869 1.5411214587 10.3690512267
145 3 2.1730216788 11.6966535758 13.6078568262
146 3 11.0035013902 8.8751071047 5.1654836124
147 3 2.5951376872 6.5729432581 1.9721723685
148 3 14.131361068 5.4107239971 2.1188247519
149 3 -0.0715196431 8.0686324057 8.9384125092
150 3 15.2558295296 6.1268483123 7.1853086427
151 4 -0.6068515825 4.2430256935 13.3446757749
152 4 0.9921880131 3.1826638454 11.0130617295
153 4 6.985126839 0.7804786228 6.2551014963
154 4 8.4834687446 3.7233811054 11.5193261379
155 4 14.8649608532 8.6732381814 12.2051898585
156 4 9.1470405124 12.2474297527 3.2417949339
157 4 8.7755370746 10.4494861638 1.4119519959
158 4 5.5902153624 4.2056029215 14.9488992063
159 4 12.7099068615 4.4693030551 -0.785888067
160 4 15.0217448714 15.5988220737 10.478665368
161 4 -0.1462339411 13.0938712853 12.3676719342
162 4 1.173999 11.1007528556 3.8668266294
163 4 14.5575444741 12.0090100956 11.9437465269
164 4 13.5423719995 16.82502921 6.8675616711
165 4 11.4099233529 8.3170306466 13.6118898069
166 4 3.8594696303 9.6480356381 7.110240927
167 4 6.6754088074 19.1009477008 12.7167599973
168 4 0.3876192329 15.0892816781 0.7404748698
169 4 2.8761633707 4.6859966284 13.6487264211
170 4 12.3318509813 15.4791172974 9.5363854869
171 4 -2.1499107278 10.0318344627 1.9386421137
172 4 8.9287055694 15.3382332669 10.5221747244
173 4 8.9286349255 1.3927037225 14.2955347752
174 4 11.800223707 10.2643859191 2.44739073
175 4 9.4009343559 14.169243642 5.3102794974
176 4 19.0096653811 -0.2511337984 7.8382998297
177 4 10.1338166034 0.3773889031 11.1234299676
178 4 7.953869884 3.6570004981 -0.7908898761
179 4 2.6116926724 6.9146437763 7.8440341779
180 4 15.5894613159 3.4399737886 8.5115341197
181 4 3.3637245272 3.734704742 9.0262123716
182 4 6.7653233484 16.2025359041 1.4579797989
183 4 7.5188466528 1.2911981198 9.1162369041
184 4 18.3450982564 10.30303712 7.0823740068
185 4 13.3416791827 17.4986308269 12.1812654612
186 4 15.1439773254 -0.067118933 -0.4883089578
187 4 6.6451626458 5.741735793 9.4123205007
188 4 9.3656132841 6.6631641575 14.7762799392
189 4 5.7631965658 0.4053874963 3.5330965254
190 4 18.6943280761 18.8759672979 0.2305346622
191 4 18.6674257847 14.8977049199 4.9403734593
192 4 3.2200115693 19.5383823379 12.6394545078
193 4 2.6876214818 8.8645483954 10.6484838249
194 4 16.6755641471 7.0288464318 0.8801789106
195 4 16.1560081721 2.7818600992 3.7173700542
196 4 1.7325463589 17.7183985552 10.8430767288
197 4 13.5832418771 2.7357586969 6.4845210759
198 4 7.5558510226 13.2949525555 0.6173208021
199 4 1.7069279896 3.5254807488 3.0250639629
200 4 9.1057825339 19.7405502206 3.9208240182
