# LAMMPS data file written by OVITO Basic 3.5.4
200 atoms
4 atom types
0.0 17.520744 xlo xhi
0.0 17.520744 ylo yhi
0.0 42.048 zlo zhi

Masses

1 183.84  # W
2 92.90638  # Nb
3 178.49  # Hf
4 91.224  # Zr

Atoms  # atomic

1 1 11.1317365447 -0.5738691928 0.2115169978
2 1 5.0598419409 17.1217870227 6.7336369402
3 1 14.2391953765 1.1302001208 0.376518816
4 1 0.9076949067 7.1771535951 11.2965080371
5 1 9.0997924379 2.7959265125 5.5765272787
6 1 2.0372574476 5.2733118825 5.5983245414
7 1 13.4742323347 5.2876081087 3.5008588742
8 1 5.9288449126 16.4727901061 9.5158740499
9 1 15.2813600661 13.7988144546 12.0451281062
10 1 7.6529642647 13.9501455007 12.6868747738
11 1 11.0427810993 10.0031008512 6.5052326246
12 1 8.451582378 0.5514426404 10.1299506106
13 1 17.1713067775 8.7536874857 3.124565015
14 1 8.0461243286 6.727415019 4.1570393587
15 1 9.0199488307 8.4367142746 2.5793761133
16 1 9.5472373734 12.9896581394 -0.4661987904
17 1 18.0602979396 0.9480443041 4.6501413005
18 1 11.6476662139 2.6942284052 6.1318051776
19 1 14.6818385769 16.5853663178 7.4173882982
20 1 17.7119809935 6.2033537973 4.361533079
21 1 17.2177866832 14.1626908726 4.3337502835
22 1 12.3298686197 12.3672401915 7.6232452147
23 1 12.4304142125 7.8551702952 12.5180957837
24 1 3.9718112724 7.1764450562 6.1490183674
25 1 1.3161286792 15.5161800855 0.6449162458
26 1 16.2069764162 16.4208484589 5.1525160877
27 1 3.3695597008 2.1818100683 6.3379925914
28 1 6.7670763768 1.0091859188 3.7042278106
29 1 -0.6643284436 12.6562290951 9.4291841088
30 1 18.0367865028 4.6288840255 11.92696776
31 1 -0.2578060091 12.5733759496 11.8347863501
32 1 -0.3712559802 14.7557882059 6.9350485421
33 1 12.0618089457 18.2952861581 7.5841620192
34 1 11.6950498396 1.0408467793 10.2116015194
35 1 14.8372393414 13.8881180372 8.1548046778
36 1 11.0040590286 9.6507695522 4.0488380813
37 1 15.2233152429 7.016477685 4.5080447098
38 1 5.6234968903 14.9650561474 4.9704474067
39 1 13.9328966786 3.2993842153 1.5507735494
40 1 4.9852026954 10.4950961328 11.1870028512
41 1 3.9533508909 11.3334971979 4.236198503
42 1 4.9942791416 1.6009809352 8.4084718522
43 1 0.3401934532 2.1383549438 13.0968448762
44 1 2.0820434478 14.5262573487 11.3632613395
45 1 12.5764930652 0.6161954557 2.0220340781
46 1 8.3863659638 -3.0874715174 1.1550463661
47 1 17.0786209905 17.2095603435 7.5407625965
48 1 17.2187205389 17.6508749459 11.838352441
49 1 4.5929934822 2.9191131115 3.1461865171
50 1 12.1859520021 10.3905626435 11.3250922675
51 2 10.8279729233 8.1086078571 0.867806807
52 2 15.253023066 7.2665346194 7.2241314854
53 2 18.5531491096 7.3267532413 1.5769925798
54 2 8.7212953094 5.827404185 9.6867007776
55 2 15.2065075932 0.8179396393 2.7107386906
56 2 -2.9009633728 15.3187065832 2.487202272
57 2 13.4843477611 17.1461508437 5.1819353914
58 2 4.0799640218 11.8547174309 7.9427431584
59 2 3.3920365377 9.6132686774 1.9050317338
60 2 12.4183671241 9.0422772668 8.3688718867
61 2 8.8602437449 9.4497813886 5.2607375482
62 2 2.7385656991 18.5245911729 11.4597362707
63 2 -0.0844983433 4.9396633032 1.6149976646
64 2 10.4038964553 5.0996648399 5.397375047
65 2 17.0641474543 10.1422048709 1.2705955315
66 2 7.7132520936 16.1098754017 5.5821423686
67 2 6.5908408195 4.7160537567 1.8094213094
68 2 4.2595013633 3.3206698168 10.280883168
69 2 2.4636533117 11.4558484078 10.4080308538
70 2 1.717617404 3.2651569163 3.7778832922
71 2 8.145135805 12.0520449854 14.2743108154
72 2 12.5030294616 14.7509176142 12.1533495667
73 2 12.5231098111 5.6417761073 1.1509222982
74 2 2.1384155656 14.3181247513 3.0102781306
75 2 11.1957906327 10.9809752732 1.3110066029
76 2 10.3862019056 7.2158940626 7.4958309446
77 2 13.3342196892 3.4733965653 8.7500353248
78 2 9.0701173786 14.6998195908 4.1090524992
79 2 6.394097757 10.6350802195 8.763737927
80 2 9.6490406052 2.4495647062 8.1770207386
81 2 14.0933747796 2.5642642568 4.3309254989
82 2 7.7845562654 3.236905067 3.3564958963
83 2 2.4773427946 1.2963894586 2.0072449555
84 2 19.2760376615 16.4697360653 13.3907545094
85 2 -0.0842767059 8.1734787622 13.432642727
86 2 8.9952226807 14.6528843209 7.3462212173
87 2 2.5243933509 1.1034455943 8.629857936
88 2 13.8533134296 6.0611692804 9.1868072429
89 2 12.5153863167 12.4332704442 2.9605828608
90 2 15.0884155009 10.9454425035 7.8193587686
91 2 10.2327844893 10.307760133 9.8514759571
92 2 0.8577989815 2.3445269699 6.9354341222
93 2 2.328115289 8.3508549199 4.0051821658
94 2 9.7210836268 12.0257519553 7.8154634419
95 2 8.6038169689 8.4016896065 11.7566250048
96 2 5.8634762432 2.0032684307 5.6619343354
97 2 13.7681347558 11.3864490912 0.5115904474
98 2 17.0483791351 12.1416835646 6.1824725971
99 2 9.0153100385 9.8553132003 13.724025696
100 2 14.2836251799 8.9215341108 10.610907408
101 3 2.3785361356 10.2444597874 6.0867074362
102 3 2.9677985284 3.5586546081 12.582854329
103 3 3.7003769278 6.1209250043 11.1759337152
104 3 -1.1672804977 4.4452923839 13.9271616864
105 3 7.4769554259 17.8941487242 7.8631988544
106 3 3.9359294895 16.5797474152 1.6405102886
107 3 5.6018177729 5.0671237373 4.5897309389
108 3 4.3744749383 4.4980529507 7.0125224026
109 3 5.4546004223 14.7444100595 7.5588987398
110 3 15.0097004048 11.0321074621 12.702910199
111 3 7.0079221305 16.3044334522 11.6801195098
112 3 12.6143355945 7.8105547718 5.9217434611
113 3 12.2145342926 15.1182841645 3.6162949306
114 3 11.1898519765 4.8860147851 8.5073426784
115 3 13.5338685671 5.0851855219 6.5013743002
116 3 0.1201518309 1.8096910162 10.0379281421
117 3 3.5614355006 17.6676578913 4.142273783
118 3 8.2508254882 8.8376058925 8.5139887853
119 3 9.9550253313 -0.2897167153 2.8703747635
120 3 9.1611460536 11.9124962892 3.04569432
121 3 9.521106235 5.2238205113 1.8549340646
122 3 5.8566795962 6.8568023845 8.0555411232
123 3 8.4192108762 -0.3523482941 -0.0435877978
124 3 15.9052227746 16.5239233463 0.4392397152
125 3 13.9223083674 10.4404948367 5.6380897555
126 3 11.6139158295 7.0871469051 3.3393255955
127 3 8.1276832167 5.4385130503 6.8644957824
128 3 14.5886094716 13.7646081804 5.2717036666
129 3 11.8386458277 10.2309558492 14.1096811219
130 3 3.8101825842 9.2166437111 8.6521677638
131 3 5.603412511 1.1838652836 11.6398303776
132 3 12.1881717051 15.4231028851 6.93592272
133 3 9.7362134901 15.5258711594 11.9823613747
134 3 2.8079138551 12.5244135297 1.214902535
135 3 15.628278156 11.785282372 3.4193315866
136 3 13.250104875 5.3104656713 11.7575105357
137 3 6.8676953815 -1.3805561343 2.5519755341
138 3 10.2149354065 2.4738311118 0.7499946182
139 3 5.7953778418 10.4126074188 2.3010482074
140 3 7.6580181233 11.1847660549 11.804628263
141 3 13.7607956665 12.0640342553 10.3418418355
142 3 10.3599906973 12.5348138433 12.7718764877
143 3 16.4431457081 3.7768215108 4.04070768
144 3 4.4338805977 15.7847953424 12.0887987386
145 3 8.1140205406 11.4583430113 0.4972537613
146 3 5.330663585 12.3161819401 13.0157960947
147 3 -1.6295234536 6.7278738873 11.6367646579
148 3 11.1712177892 7.4444232588 10.3151014099
149 3 1.7059433323 3.9380654434 9.2782401984
150 3 14.4565622819 7.1645384842 14.2008739834
151 4 16.4062911735 4.4589350864 9.4948967232
152 4 16.9939271157 14.7676532537 13.628923632
153 4 2.8797760627 9.1932235574 12.0413425248
154 4 5.8135277558 7.4838834785 10.6100016941
155 4 14.6867548976 0.9373317708 10.3321245427
156 4 11.4532428979 14.2385865306 1.0680452698
157 4 5.0991341366 8.26040916 4.1878041984
158 4 11.5670094689 13.3423307425 9.887186903
159 4 6.5505748209 1.8033362424 0.7304431392
160 4 3.161236653 -1.8196997412 9.0296259322
161 4 3.1229666175 5.7437825797 3.3823953619
162 4 1.04090232 11.1270031405 8.1446109811
163 4 11.3533795629 3.5657522615 11.6055696672
164 4 16.8883492148 15.7711093636 9.8351684813
165 4 10.336461039 6.6954466695 13.2148828627
166 4 5.61251664 9.9634426471 6.2068356288
167 4 5.701103449 14.5860957704 0.2536036819
168 4 0.2922391768 -0.8269081578 2.6482044845
169 4 6.9380807655 3.8648655271 9.0516641299
170 4 13.2733063698 16.0110151293 9.8816353056
171 4 1.1136502012 7.1868239945 6.9951120077
172 4 8.3882701183 3.5566532135 11.5590507034
173 4 12.4222076712 0.4881754091 12.5528236474
174 4 13.3630604107 9.3140921619 2.4879351686
175 4 10.8554825939 12.6742376166 5.3132227027
176 4 14.8376111316 1.5979412613 7.0479907315
177 4 -0.4987030985 9.18944188 5.9282146483
178 4 7.2288115815 12.5617022283 5.9078007648
179 4 1.8154006763 16.4767963995 6.189139728
180 4 10.3767382509 17.3803487015 5.9266958746
181 4 17.1611433443 9.8720477885 10.9580287853
182 4 1.6080451239 17.6996143267 -0.2416044442
183 4 14.6911957054 16.3370330742 12.725270905
184 4 14.9074321725 3.4420866454 11.621425968
185 4 15.1834138509 6.7725831466 1.6832823552
186 4 16.7049008929 2.5134216858 1.2241139904
187 4 6.2088395423 8.8515823652 13.367205527
188 4 5.9848385823 7.3706504141 1.7349980314
189 4 2.1894475358 6.0829852348 13.7919277498
190 4 6.136429461 13.3418384096 2.5662996058
191 4 8.5587201507 13.1605530235 9.7876870387
192 4 1.8266509212 13.2710887693 13.6365902438
193 4 -0.5339968852 13.3304378366 1.272487271
194 4 10.9236300533 2.8912894692 3.2488946438
195 4 1.2494107373 11.4573406495 3.6150448435
196 4 5.5526228527 13.4999671539 10.2178780243
197 4 17.0438778808 4.6068893595 6.833146055
198 4 3.5003991856 4.1220819631 1.0457989344
199 4 10.4126901168 16.6600269386 8.8996765882
200 4 2.4094991449 13.4941758472 6.292965911
