# LAMMPS data file written by OVITO Basic 3.5.4
200 atoms
4 atom types
0.0 17.563496 xlo xhi
0.0 17.563496 ylo yhi
0.0 42.15 zlo zhi

Masses

1 183.84  # W
2 92.90638  # Nb
3 178.49  # Hf
4 91.224  # Zr

Atoms  # atomic

1 1 12.76665426 14.7524772581 4.649186307
2 1 3.6220189656 0.3518316006 1.717505439
3 1 12.3570233017 2.143315218 2.77725507
4 1 17.5523373841 7.1309304221 10.5036624015
5 1 8.2685923516 0.1187060491 5.3313153525
6 1 5.7645253846 10.2329309788 1.764147786
7 1 14.3540843027 3.8969932346 3.4586532345
8 1 4.4335970284 0.2728179986 5.0689206435
9 1 15.2410260974 6.4806486568 11.58768411
10 1 7.6977051405 15.2692135765 11.328993543
11 1 6.6016414731 12.5693280312 6.540762816
12 1 2.7259021763 4.4312229706 11.542323966
13 1 18.3370440005 11.1561031043 13.244319048
14 1 6.0074304663 5.201007114 2.8339396545
15 1 10.6604075029 6.6275316469 1.7669975475
16 1 8.574518067 1.4539676711 11.2697850165
17 1 16.0011225676 5.4053513645 1.821003078
18 1 10.3826304512 15.3714756269 4.2756576435
19 1 0.2823932654 15.5214027221 6.4270518105
20 1 18.6306329408 10.4053660455 5.7680205435
21 1 15.2821332842 8.0224652466 9.1955995335
22 1 13.8205456903 9.4484273964 11.026483836
23 1 16.7276184892 8.7087274141 12.8556551625
24 1 6.5783461302 3.1063782581 1.330823868
25 1 1.4107086048 9.2200620793 11.0816569215
26 1 16.2910960622 17.2068224948 7.6618335315
27 1 0.8231998281 15.5041508026 8.891942082
28 1 4.3003469995 2.516136777 6.4414645815
29 1 1.6235335651 12.4040802984 11.0619863595
30 1 15.4044964044 2.8793049118 12.500994525
31 1 4.9941261677 17.3056895214 7.705573851
32 1 15.7311941154 12.9845819428 8.012585178
33 1 13.5264962352 12.3697520942 6.2479868085
34 1 8.3540143464 5.5623349456 7.4530409775
35 1 12.3871640172 12.1737469915 12.552184014
36 1 10.0802748675 9.3433957583 1.8972916275
37 1 12.0741199924 8.0991534417 8.4573540855
38 1 2.1692933849 1.5446676721 4.517600751
39 1 8.8874128021 3.9266755429 11.303367186
40 1 4.7586096975 7.1959901778 7.31938122
41 1 6.2647383172 12.0313528797 3.6564547545
42 1 6.0309253305 15.0169942216 8.38978047
43 1 13.4239187444 1.4177334763 11.984576097
44 1 9.8609515894 16.1197344764 6.970102716
45 1 9.2352766333 3.7960407185 5.7990690765
46 1 8.1282041666 15.8882375879 3.0073675155
47 1 15.1721508478 15.4854997749 9.7234768605
48 1 13.6157581371 18.0494421048 4.0673144085
49 1 9.9921064689 2.310316139 4.065122187
50 1 17.9678222556 6.8661294568 0.7799802705
51 2 8.5720370476 10.8998483606 0.94873749
52 2 13.4915933534 4.3004769693 11.239139859
53 2 16.6532353273 8.7540333302 5.455894314
54 2 8.9947835466 7.8878132994 12.6966914955
55 2 11.2077610344 5.1327855777 4.197588678
56 2 -0.5919202 15.4505057386 2.933688051
57 2 14.7777983747 1.1669019889 6.192359346
58 2 11.1351003245 17.7630958234 5.117141508
59 2 2.6807378219 12.6855644772 13.184836125
60 2 11.801186426 10.05453855 6.1256776245
61 2 9.5684215523 6.9602181587 4.9625812515
62 2 -0.4509889518 16.1348466353 11.54223798
63 2 2.5749681658 15.1522791572 0.952423929
64 2 9.0064975202 4.3099682826 2.7506849745
65 2 11.0256614784 11.8948639665 0.5053789215
66 2 11.688772675 13.7459517664 10.587626466
67 2 7.8470224312 14.666209581 13.8624391035
68 2 5.4014276795 4.3760168631 10.6963089765
69 2 2.27035901 3.0565553621 8.895991854
70 2 16.0466367868 6.5917458482 4.2941539065
71 2 4.3385112468 14.0269295897 3.8944914
72 2 15.4169835232 11.6148777782 12.6970050915
73 2 20.4620808882 10.2527624491 1.885990791
74 2 1.6429080331 3.4719871919 2.52314115
75 2 14.5583157957 13.0493698156 3.35551092
76 2 4.3125290403 8.3973139843 9.6311127225
77 2 9.6012610746 16.2863251141 10.0484702205
78 2 12.9418789368 14.3428025667 7.9679377905
79 2 10.9249850604 14.461943488 13.13576931
80 2 7.599256652 3.2724723758 9.1053833595
81 2 16.2915887183 4.6876363127 9.698022054
82 2 11.2805304623 6.0110545181 6.816349632
83 2 3.1891699438 5.9487164017 2.106136026
84 2 16.6106849481 13.3586389181 10.589646294
85 2 3.8605644363 12.5767582682 1.1688064335
86 2 14.2163118492 10.4549692222 4.2322119525
87 2 4.9846464463 4.9807201268 8.1494761545
88 2 13.5414694668 6.3445398176 9.690137475
89 2 12.9076777166 13.7034391487 1.251156153
90 2 11.9076789957 7.8423275331 12.140146689
91 2 16.6848958121 10.4090981128 10.5895615725
92 2 3.2802428177 9.0306729699 5.8552592415
93 2 5.4793075578 8.349516335 3.520938711
94 2 9.2052711567 11.4387649155 6.8788171965
95 2 13.321437326 6.306639374 1.7061632955
96 2 7.3776171001 7.2254244894 5.5259429775
97 2 16.1339171751 12.5801942149 5.535439794
98 2 1.6979732814 13.363608158 2.397310755
99 2 -0.1818722843 0.9930964427 12.322856823
100 2 3.7267385004 7.2789931522 11.540503929
101 3 3.0701965782 15.6116597717 6.814817901
102 3 2.7416885977 0.5516746784 12.46542414
103 3 20.8670255545 3.3314890595 13.711148844
104 3 14.3276421082 -1.4542832871 2.446896858
105 3 6.5716270392 -2.1160194376 5.631173403
106 3 17.2915489752 11.021029282 2.773786968
107 3 4.3641734465 2.6766485132 3.1834904475
108 3 1.165027437 12.2109083633 -0.170114871
109 3 16.5021406108 13.7902871238 1.050879585
110 3 1.0157198062 8.5173675049 3.4484183715
111 3 16.9445596304 2.7224783484 7.427323155
112 3 5.7243692612 8.6383908817 13.2173696025
113 3 11.6882549031 12.2951985664 3.3660454695
114 3 5.8657007815 -0.447533334 10.6794211575
115 3 9.8460036492 1.013123219 7.8275833485
116 3 14.3318796529 14.1976664419 12.5829792255
117 3 7.2092736254 1.5267643224 3.463789212
118 3 10.8485139501 13.4492762174 6.501006093
119 3 6.1723209576 2.4088087119 11.92606431
120 3 8.3627154779 10.6361340489 4.54377
121 3 13.9794998956 8.0679813977 6.3371290005
122 3 10.737184218 5.8029005696 12.731341746
123 3 6.2418314788 14.2468614429 1.9661124615
124 3 0.263710799 18.6308600368 1.618759791
125 3 14.4521564055 10.3742438818 7.8353743545
126 3 9.0911879954 8.1560949983 7.7427716475
127 3 6.9192325114 1.6082921389 7.32218841
128 3 14.813289458 15.5765784448 6.0651358935
129 3 15.0319328532 11.5996286241 0.815911038
130 3 4.6928500365 2.126778484 9.193824597
131 3 4.3672170247 5.8287308519 13.9087855575
132 3 13.1996854154 17.3902582816 7.8035266575
133 3 8.7215549134 13.8403128781 8.626623006
134 3 4.0850007994 6.3174992348 4.847816496
135 3 1.5346810683 6.0282886985 8.4484199715
136 3 13.8337165559 3.1221513314 8.3862293325
137 3 5.9820975822 18.3852501767 0.4548166245
138 3 11.3432272252 1.5191329834 10.157246304
139 3 3.9258221326 11.1052392199 4.229631951
140 3 8.9570178149 13.3134413688 3.8704073115
141 3 12.6302396404 10.3626913167 14.164342272
142 3 10.2605759215 14.2014109792 1.424668314
143 3 13.8673745371 5.0479935855 6.102411246
144 3 4.3411245194 3.5658559988 0.5709440895
145 3 3.6441930549 10.2549975796 11.8932779325
146 3 6.40881308 11.3254752729 13.4774443755
147 3 0.7052036954 6.2631797326 12.953951913
148 3 13.9382344618 12.3541773128 9.8668602015
149 3 16.5976417691 6.286450311 7.115516001
150 3 9.9272572995 6.8330154171 9.726993435
151 4 15.6346212326 2.2363710107 2.6266223505
152 4 -0.1338459583 13.9892546613 13.8924971115
153 4 7.9520361545 7.3617130032 2.56150608
154 4 6.9597325281 5.6718150659 12.3423524625
155 4 10.555319486 4.3155601484 9.1543456425
156 4 12.2249512565 2.7173058988 5.9219135655
157 4 11.3837553435 4.1157258524 0.344951385
158 4 8.7562361439 12.7785185772 11.7370599165
159 4 12.8570966045 9.5839109751 1.921224819
160 4 4.02036046 14.0738822591 9.6309500235
161 4 4.5722483592 7.450013128 1.023218226
162 4 1.2371275201 13.2555805388 5.2480884915
163 4 14.0668291104 3.6781617344 0.5506598235
164 4 1.1745189259 12.886923636 8.23740822
165 4 11.2132129192 7.5004298458 -0.6681613785
166 4 6.3855749941 10.0765415708 6.4783247565
167 4 10.7155201726 2.7806038602 12.7779769275
168 4 5.5742454548 13.9901855266 11.9917698375
169 4 10.7522440377 10.4346782909 12.2265714705
170 4 6.7209747147 -0.4437538453 13.255970994
171 4 2.4152745373 9.1891796573 13.930762989
172 4 10.8189635437 17.4725123486 12.774016935
173 4 6.7988855048 6.5816187364 9.903540396
174 4 15.9151404729 8.6419497729 1.628958405
175 4 4.0293889751 12.8783112001 6.9621351015
176 4 2.1519120224 18.6042023382 7.3592901045
177 4 1.1741764377 6.5759736532 5.4677523735
178 4 7.4743162643 5.2645086363 -0.0615781995
179 4 2.1391433608 4.1131259281 6.2024572215
180 4 12.56870119 -1.2187731398 11.1490952355
181 4 6.1255830897 4.3670631685 5.563416435
182 4 2.2855027831 15.740771841 11.512477551
183 4 15.0360291873 16.9906430825 13.4294195085
184 4 19.2575972331 8.9808477907 0.217293366
185 4 15.242898893 0.7241743787 10.241889405
186 4 10.5480854333 -0.0622678624 2.1473456595
187 4 11.4855902497 11.4971948027 8.835983742
188 4 10.022266153 12.7011845724 14.642392398
189 4 2.5619288507 5.5054295698 -0.665243334
190 4 2.2187725633 16.2722458645 3.491494407
191 4 5.465302953 16.7418802236 3.168611919
192 4 2.9902719577 10.221324845 8.1459203805
193 4 0.2975187725 9.3173768441 8.3785082955
194 4 12.6031442595 7.3727356776 3.924181017
195 4 17.0894038499 17.7006061341 4.5412683975
196 4 6.7053572541 9.5734559528 10.857945375
197 4 -0.2412985487 3.413758758 4.6417742295
198 4 5.8295278833 11.7130261066 9.3808588995
199 4 0.7749767909 0.7618250695 9.9381906465
200 4 17.7880049003 3.5088519162 11.7594390375
