# LAMMPS data file written by OVITO Basic 3.5.4
200 atoms
4 atom types
0.0 17.520744 xlo xhi
0.0 17.520744 ylo yhi
0.0 42.048 zlo zhi

Masses

1 183.84  # W
2 92.90638  # Nb
3 178.49  # Hf
4 91.224  # Zr

Atoms  # atomic

1 1 10.5718152658 0.7811204967 0.4610470694
2 1 4.2711929557 17.0542713613 7.2598794336
3 1 14.0815666741 1.5744510246 0.6876668678
4 1 3.1056452596 4.9780030713 10.124958672
5 1 9.5355794208 2.271174623 5.238908329
6 1 2.7836758331 6.3352652012 4.1818287571
7 1 13.5420814159 6.4750937037 3.3731881114
8 1 6.5824317385 16.9747266579 10.0152087667
9 1 15.4993803201 11.9441145743 11.2038170054
10 1 7.3264976136 13.5662563632 13.703380969
11 1 9.4773420446 9.1454055924 5.7058152077
12 1 8.3221319378 2.4426907927 9.4723825421
13 1 16.1844934471 11.2040138187 0.6445857485
14 1 5.9214334627 7.2872767274 0.3322893658
15 1 9.4223587962 10.344869244 3.351088103
16 1 10.3319103761 15.5682729368 0.8973026381
17 1 17.2101795266 1.1642951382 3.8059461274
18 1 12.1385110835 2.3405947893 5.3960375002
19 1 14.3592872865 15.5519586712 7.5472602739
20 1 16.3267536537 7.3402147793 3.0369193229
21 1 17.3554681937 13.518128982 5.092518217
22 1 12.7923803438 12.0409832637 7.6851705658
23 1 12.7991193476 6.8696223129 11.9443789958
24 1 3.6245189394 5.5535532042 7.6131032371
25 1 2.0565717902 14.6878243638 1.0276270502
26 1 16.0946216668 15.569046828 5.5354430189
27 1 1.743755726 4.7888901176 5.7138169421
28 1 5.692484995 1.3080638808 5.4352577722
29 1 0.2617301301 12.4602613255 10.1912040346
30 1 15.7235275783 1.8379377845 12.7941089472
31 1 0.0701928311 10.318601619 12.3703508851
32 1 1.5432280076 16.1148595278 8.7395712595
33 1 12.4538126405 17.20396597 7.8006570797
34 1 11.6477131695 1.1103280929 9.9080343014
35 1 15.35288132 12.1518198407 8.2981551398
36 1 12.2351323801 12.1085465815 3.4492075315
37 1 14.8304917525 7.1817932633 5.4658989907
38 1 3.4233578461 14.6448330135 6.4616380992
39 1 12.1935206131 3.930278524 1.8860188896
40 1 3.5652352244 10.1481647272 8.5494701491
41 1 5.0044874279 11.0800575334 4.6417262342
42 1 6.246626706 1.2398892642 8.2120715309
43 1 1.1491819196 1.0593246815 13.2441247238
44 1 1.9211129612 14.729961578 10.9216888013
45 1 11.8755299723 1.1127457804 3.0568294714
46 1 9.5320130733 0.1920145641 2.8861023974
47 1 16.717709608 17.2355001554 7.9803786413
48 1 14.9790897377 16.9917312408 12.6735211699
49 1 6.6107895882 4.768742138 2.5174108166
50 1 11.8889964162 9.0127940596 13.0066128115
51 2 11.7321200546 10.4632197672 1.753421783
52 2 15.8129972575 7.2699108667 7.6565161152
53 2 16.7706345194 8.2714621214 0.5641912339
54 2 8.1471857321 8.3210938337 10.0642148698
55 2 14.668753034 0.7481569689 3.557597184
56 2 0.1206981277 15.7491739177 3.1586697274
57 2 13.1567385823 16.557956165 5.1359823936
58 2 5.1623032518 12.1753284741 7.0727599469
59 2 1.570014597 10.7333857852 1.0811512109
60 2 13.7932670366 9.2651502413 8.2241880826
61 2 6.8699709757 9.2113251141 3.9968032608
62 2 2.5138192315 16.357483637 13.105941961
63 2 0.798314654 5.3027456811 1.3111953984
64 2 8.6821918122 5.1519237878 5.6091573677
65 2 14.1725350778 12.0632815642 1.8862526765
66 2 7.2909527547 17.3905864226 0.8773134394
67 2 3.7807004283 5.4488352215 1.6926144883
68 2 2.9706580891 2.3644280822 11.1363900941
69 2 2.7059480308 11.2750420388 11.3285687962
70 2 3.0290736512 1.3371649605 4.9144255949
71 2 5.1197341513 11.7751888466 13.200739177
72 2 13.2101304215 14.7137683807 9.4453423142
73 2 14.065002738 6.8062243768 0.36177048
74 2 2.9802645378 15.0316398804 3.750134976
75 2 12.1946703243 13.4658045065 1.0802661005
76 2 9.2178416044 7.314915701 7.7629232045
77 2 12.8421306716 3.0933891487 9.0495718214
78 2 8.8028287925 14.9213609887 4.4802846202
79 2 7.2793168781 12.3206036503 8.4596779066
80 2 10.0724193971 1.6637742304 7.8314328518
81 2 14.1682074541 3.508791622 4.0997043878
82 2 8.3565927883 6.9403533812 3.2897985178
83 2 2.5274656134 3.1275367284 0.3851104838
84 2 17.425613894 16.0987549855 12.9544169472
85 2 0.2413803116 7.6811318392 12.2020794144
86 2 8.8831503657 13.8817467938 7.1681714842
87 2 2.1452476045 0.9781512498 7.8884659181
88 2 13.4135636049 5.4731881796 9.7439138093
89 2 14.7795687613 14.5697454121 3.2846467968
90 2 16.3349514346 10.161904845 6.7443162912
91 2 11.4138298091 9.5346730727 8.1127890547
92 2 0.0804566581 2.6959012858 6.2812235866
93 2 1.7644999364 7.7323852716 1.7861775955
94 2 8.9977840383 10.4789952699 8.8111230797
95 2 9.8678459637 7.3831467344 12.2474529907
96 2 4.0250413952 2.9774125111 7.9423697722
97 2 15.9157905865 14.2018364197 0.7573248461
98 2 17.2638993542 14.0766624427 7.4575630598
99 2 7.042156613 9.2472433401 12.4408901894
100 2 14.4440962726 8.0809236799 10.5366699821
101 3 3.4289289171 8.8261546846 5.8889123827
102 3 4.3464252784 0.9518079351 13.7935402906
103 3 5.4022952196 4.0553244243 13.470003216
104 3 0.7260464908 3.7305458969 11.6866176077
105 3 7.8308033204 17.4320448831 5.6812507661
106 3 3.3580706481 12.5622763831 1.8094128998
107 3 4.5492557482 4.1377160734 4.6013164243
108 3 5.4760000838 3.7454164532 10.7352626861
109 3 6.5558037117 15.0249770919 7.1066094278
110 3 14.7768211582 9.3391683764 12.689456521
111 3 9.0763971637 16.2109930468 12.8453150016
112 3 11.8598746619 7.1630295977 6.4328293325
113 3 11.1629262723 15.4182953681 3.3767987731
114 3 10.7243690847 4.3646012982 7.4920323283
115 3 13.7265841362 4.5217646496 6.8353598822
116 3 0.1791694058 0.4285123699 10.6658990438
117 3 5.5540711174 16.9157008483 3.4887149914
118 3 5.2602084684 10.1924000504 10.2099259066
119 3 7.3494659074 2.1048926005 3.1957770874
120 3 9.700297717 12.7400705857 2.570636857
121 3 11.3077374992 7.2276242007 0.6795953338
122 3 5.8674891944 6.3549590431 6.341647824
123 3 8.187363251 2.4990292707 0.089530704
124 3 16.8110904429 17.2890276052 1.1522207405
125 3 13.5741555907 10.1721788341 5.7751233466
126 3 11.2258870659 8.3831749107 3.6488560608
127 3 6.9962326405 3.3374009008 6.532734119
128 3 14.7376947087 13.2449134785 5.726307721
129 3 13.1569349898 11.2877817222 13.5162156499
130 3 4.792902368 7.3429650105 8.752017888
131 3 6.9854652672 1.4188428145 11.9820931085
132 3 11.9397513834 14.4111271382 6.4656734458
133 3 10.8056693666 13.7165514078 12.3753920198
134 3 1.9254023898 10.2234037077 3.808728023
135 3 15.6737218849 10.784395504 3.6853406899
136 3 12.9988356803 1.9043286141 12.1900763923
137 3 4.727618499 2.0562825227 2.1650174611
138 3 9.5105095138 3.5012738211 2.9381540371
139 3 6.5458978335 11.3059915571 1.5587113709
140 3 7.6545094191 11.7739962096 11.3632352698
141 3 13.1838021747 10.9475148571 10.5125495674
142 3 10.33527103 10.4368298474 11.6035215091
143 3 16.7335101653 4.8969938089 3.9544806874
144 3 5.8604688075 16.2619798135 12.7147706784
145 3 9.584496462 11.524480491 0.1261170893
146 3 3.7476060206 14.1220287299 12.4203623558
147 3 0.2054181085 6.1247401463 9.7952952038
148 3 11.2520535962 7.6989055827 9.6991368941
149 3 1.1921156267 3.3206389802 8.6167843718
150 3 15.731486201 5.7772424701 12.2656332845
151 4 15.8247177592 3.264704005 9.3257502336
152 4 14.7535369655 14.3164043895 12.2202037843
153 4 2.4374774953 8.0667183863 10.7008295789
154 4 5.7421116263 6.8138839204 11.615560272
155 4 14.7669554025 0.1624938625 9.734983655
156 4 13.8457220417 16.2647169041 1.3354999834
157 4 4.8366337946 7.4384474587 3.2980285728
158 4 10.3504136835 12.6922699663 9.4159625357
159 4 8.2988759535 5.421704875 0.7362878112
160 4 3.7830506609 0.2293300695 9.9911135808
161 4 1.6112666631 3.4693978059 3.2194740787
162 4 0.8353669978 11.2379343295 7.5629719296
163 4 10.744427358 4.2843431501 10.6016841792
164 4 16.2562987123 14.9874599228 10.1168703187
165 4 10.5540544876 3.8482099574 13.747519175
166 4 6.4908070077 9.2453384848 7.2655945978
167 4 7.6618525381 14.7313264439 1.9504002643
168 4 2.1251565673 0.5885147827 2.0915238643
169 4 7.9818941572 5.4158681896 9.0561237408
170 4 10.4118382582 15.6989640208 10.1673169862
171 4 1.0944986263 7.1960362265 7.7308279661
172 4 7.9540955695 4.6826558897 11.9989993478
173 4 10.0357085326 1.2093921316 11.8369888243
174 4 13.9603213736 9.0877749596 2.2383689357
175 4 11.058656295 11.3713814266 5.6288795616
176 4 15.1087732038 1.1903660052 6.8909696237
177 4 0.2991593451 8.0859260276 5.1758317037
178 4 7.8613715873 11.445802714 5.4207167328
179 4 1.7049346631 16.7647696255 5.7138535238
180 4 10.5482220072 17.3495980437 5.3354215238
181 4 16.7985002115 9.5902725257 9.8821752019
182 4 4.7002919202 15.7043257189 1.3149868666
183 4 11.9795940809 16.3706431174 12.6786699475
184 4 13.4289745009 4.3666035688 13.0919681491
185 4 15.4604921528 4.8820876855 1.2484896365
186 4 16.8646942831 2.5839649318 1.535015641
187 4 3.8840149994 8.7473744113 13.3660357517
188 4 8.4273792222 8.7298210787 0.9328958496
189 4 2.6438245536 5.8287669485 12.8899224634
190 4 5.3592353631 13.9803356699 4.1600163571
191 4 7.4491119851 14.3417541027 9.9716991782
192 4 0.8394477543 13.0957807602 13.1934392237
193 4 0.2542140813 12.8956069608 2.445522192
194 4 11.2323827065 5.1593038756 4.1738968224
195 4 2.4313764218 12.4417809704 5.283120119
196 4 4.5472585586 15.2630314406 9.6510655181
197 4 16.677083558 5.0540247035 6.8034492346
198 4 4.1245071845 9.8135528574 1.7312603846
199 4 8.8921805571 16.6925927454 8.3917001664
200 4 3.0918948045 13.135028278 8.8590914381
