# LAMMPS data file written by OVITO Basic 3.5.4
200 atoms
4 atom types
0.0 17.670372 xlo xhi
0.0 17.670372 ylo yhi
0.0 42.408 zlo zhi

Masses

1 183.84  # W
2 92.90638  # Nb
3 178.49  # Hf
4 91.224  # Zr

Atoms  # atomic

1 1 15.1257080247 17.1516310176 9.2435754938
2 1 3.0536244069 11.2464376065 5.7181823388
3 1 0.7416318742 7.1474324018 6.521629464
4 1 15.5811841276 14.9918204995 11.3012540618
5 1 9.0510014981 9.718764856 1.7794222927
6 1 11.4030402182 7.6370022506 6.6757091782
7 1 0.382666042 7.7431354525 3.7434487298
8 1 2.3008803426 16.0216200935 10.6224152112
9 1 17.0981719576 1.1313798478 14.0924286072
10 1 4.2018681509 10.0151192591 13.5982846541
11 1 6.8698987119 9.975214258 9.647671572
12 1 11.1001546688 11.5507480946 2.4830019706
13 1 7.591613603 16.147332421 5.2442886298
14 1 3.5010057124 5.0466547091 13.6935631318
15 1 8.6513936336 13.782373655 13.5734458644
16 1 11.3353434327 6.2555544789 10.9050641071
17 1 6.1106102486 2.9326541004 3.5110299895
18 1 12.2407116244 5.0264147116 7.4833152559
19 1 17.4935589004 9.3498730457 1.7769554194
20 1 11.245530763 3.5625968543 9.4034256646
21 1 13.8537114206 3.1477334508 7.3673107164
22 1 6.3120390599 10.0816331898 1.5375881282
23 1 0.2799734382 8.1766232514 11.3911569014
24 1 0.1596516343 16.8639543574 1.1650915231
25 1 7.2442552614 3.3252572527 6.3575766605
26 1 17.2255534285 7.4828549372 13.6008469454
27 1 4.5886770116 1.5781676056 1.3776221837
28 1 12.918518645 2.5380101968 11.2480184513
29 1 12.058706086 8.1440850284 9.129785076
30 1 4.1009565439 8.3480041253 9.1530055764
31 1 16.0214822646 15.1380276313 5.6158429291
32 1 17.5662101048 13.2812763623 10.9078193549
33 1 9.7888229332 8.3802126191 13.7020252241
34 1 15.3055017626 17.5132944088 11.6343120751
35 1 16.5567537033 17.2089628929 6.6288546994
36 1 13.3130377958 11.4586573606 12.2773267678
37 1 10.2715591191 3.1071188076 3.779210124
38 1 4.8515494171 8.3619642492 6.1732146658
39 1 5.7797107984 5.6212492636 3.4781603969
40 1 4.6119177917 7.7319979938 2.936642467
41 1 16.8479430567 14.1171962813 8.7399686196
42 1 12.0942348427 10.9738770661 10.0366195126
43 1 11.7410617118 1.6847445106 4.9469771678
44 1 1.7377527993 7.5821403398 9.5646816605
45 1 14.5306736208 9.2539368853 13.1444757979
46 1 7.9618103702 11.9270379595 1.3801899881
47 1 16.1649404166 2.8838089513 12.441452089
48 1 2.3571724932 15.8027092763 5.2076103746
49 1 6.8075419129 12.3418032925 10.0860528218
50 1 7.6435860545 2.0134173172 12.7214263123
51 2 10.9935251062 1.4360875659 0.5694033103
52 2 12.4115424195 6.6420595859 3.7825692617
53 2 4.4459339795 16.371981338 1.5496273354
54 2 5.4770754615 10.5634075773 4.3082461073
55 2 1.6902194986 8.9859377748 14.0537453018
56 2 1.8988454525 15.1150269916 1.8840517344
57 2 16.152169862 5.5451772519 4.587315768
58 2 16.7574226886 5.5044217758 12.2675818334
59 2 14.1568411745 15.379537794 7.8530082682
60 2 17.4823924622 13.347651404 13.762143229
61 2 11.8118285477 9.4448622508 3.5884241654
62 2 16.0314626674 3.3047341759 2.3041279951
63 2 2.2727303797 12.4605906012 13.0443407561
64 2 4.7534625958 3.7251778828 6.6546599674
65 2 2.5116085406 1.1296115737 6.0155421458
66 2 0.6270525878 15.6806359852 7.2174187922
67 2 11.7669018036 11.1714440176 5.3735770512
68 2 4.2360751639 17.5443037912 10.8429575911
69 2 9.513904105 8.8493298959 5.2310891398
70 2 3.1761166625 2.8190226528 8.8199386574
71 2 3.3008203652 10.2680338799 2.0694387305
72 2 14.2336263624 7.0331904429 11.6529741396
73 2 15.4443509515 10.8045187431 1.9497637786
74 2 1.1800767425 1.8857794493 2.2259602973
75 2 10.3361655332 15.793882042 12.4178125975
76 2 4.5469620343 7.5925688633 0.3664534651
77 2 2.7247197649 6.5770644236 4.6629411062
78 2 7.4214970443 17.5204311186 11.1651816326
79 2 3.0615345489 4.9237471998 10.3777825428
80 2 11.0985853631 3.7895929268 13.2036264763
81 2 0.4867233286 1.5082325141 7.679532407
82 2 7.2940353499 7.7561401395 0.810634433
83 2 5.0218071621 11.2421689748 7.7274564156
84 2 15.0018221068 12.9132988171 13.2664598654
85 2 16.6989175006 11.3004592911 4.1088784658
86 2 5.0117509534 12.0466865222 11.7535548895
87 2 14.0723820974 12.5626301081 4.4140998679
88 2 2.9716752295 3.8662620204 2.1332983932
89 2 12.8302964855 2.3624363204 2.4067765591
90 2 0.5851296303 4.8362364495 3.1709250389
91 2 1.5233397986 5.8457255411 12.28130379
92 2 13.7063131291 9.6152095846 6.6035892852
93 2 9.3990392654 8.2357723478 10.4750202701
94 2 12.4922696907 14.8015471708 5.864506902
95 2 5.0716374345 15.449645525 4.4956814098
96 2 17.0171064755 2.3644606382 5.4657063108
97 2 17.4339931366 16.4272035477 9.6671809483
98 2 15.2680370399 1.0075343951 3.3176266092
99 2 6.33760049 8.8743580341 12.2158232935
100 2 12.1297499933 13.8259374833 3.6335182882
101 3 12.3522535505 6.2055162263 13.7982290443
102 3 8.3607962377 2.3330967881 1.6293687941
103 3 0.5209556102 4.3396922815 0.6661368065
104 3 14.0514206187 0.3377917789 5.5981303798
105 3 6.0240305502 4.4168671011 9.0455530342
106 3 0.2253550251 17.38463537 4.0145753722
107 3 4.5657290296 14.6048036586 9.8602217402
108 3 16.9920541289 10.8112762467 9.4183842384
109 3 1.6586443109 9.9593082726 4.376834262
110 3 1.6044526373 4.1193088156 6.5060894765
111 3 3.3976458754 14.7807689337 13.1038938864
112 3 9.4556970161 5.3920445712 8.1184217047
113 3 7.3146808824 8.3391502087 3.8910904855
114 3 1.2886240707 1.4578159388 10.5562460088
115 3 15.3180351808 6.7642707059 1.5815669206
116 3 0.0082783926 4.5324505947 10.0235620894
117 3 8.4844156863 11.3425465831 3.8883543214
118 3 2.7349284689 9.998592867 10.993971631
119 3 6.7998932923 6.0524252477 5.9499250956
120 3 16.60053258 12.0263233622 6.6789639922
121 3 16.8869864504 9.4201565969 6.4582630063
122 3 12.7324466239 9.6004917551 0.6930561326
123 3 6.6784299825 14.7905735163 1.7632042013
124 3 3.7430860981 14.1915431345 6.7719036686
125 3 9.8795224789 14.2347005443 5.237610642
126 3 7.4346393834 8.931840461 7.0259118977
127 3 1.2804972899 11.9654830345 1.7918100936
128 3 9.957285015 10.0906995043 8.0515218125
129 3 10.3207905425 12.6540679218 11.0615008579
130 3 2.8786294118 17.4381681154 8.2496273918
131 3 10.1892717308 2.5184803715 6.6546256169
132 3 10.3655193785 5.8151858372 4.7073075077
133 3 8.3493460133 1.3665509413 4.7063796206
134 3 13.0453767194 14.5338807933 12.9474257537
135 3 12.3290834519 16.53586591 0.5400226238
136 3 13.8739314506 4.0050447687 4.9217694286
137 3 6.2364003258 6.9407883569 9.0477035438
138 3 10.6057056769 11.5705101086 14.1344587519
139 3 6.6223544706 13.2523798263 3.7857316262
140 3 2.1153767773 9.4088479122 7.2209882736
141 3 10.3364341229 14.6206506249 1.2407796252
142 3 10.3937407296 1.8299179256 11.4025990039
143 3 2.0173924441 2.7417813926 13.0559516424
144 3 5.702758272 0.5117779723 13.2850400825
145 3 10.2880770294 13.09427647 8.0226453571
146 3 3.0895005631 17.5287570445 3.2911483262
147 3 1.5216900927 6.9088901548 1.5218632418
148 3 14.6165155811 15.6984577923 3.3236985866
149 3 8.2923412165 14.9929127052 10.4430514234
150 3 16.0656327492 4.8068933831 7.3386026208
151 4 14.2703537005 1.8014560807 14.0789623709
152 4 2.6578250376 12.8291136308 10.3305637793
153 4 4.8355218596 2.6309897505 11.6758256904
154 4 6.2341975372 4.9722071347 12.7054147478
155 4 11.9557595589 8.8011074507 12.151477211
156 4 12.2644968286 4.5516552851 1.7915340175
157 4 17.0452352339 10.8457792384 12.9449822047
158 4 12.2598921064 14.8624620675 10.09220283
159 4 6.0716115609 15.2248985374 12.5488007316
160 4 9.1086977365 17.2715555914 0.4425096686
161 4 4.6576755734 12.7246020389 1.099687361
162 4 15.9334684388 2.4701109088 9.554188649
163 4 10.3632464385 7.2963846259 2.0381216947
164 4 15.0570884924 16.4973238247 0.3764439418
165 4 16.3407381766 7.2866558492 9.4102414783
166 4 13.2873535567 13.1223831404 1.2925915992
167 4 14.0886789514 12.8221306532 10.3070977366
168 4 5.6272216726 1.4689590521 8.8093179979
169 4 14.4158909485 9.5608867969 10.251704407
170 4 10.6626394388 16.4912298435 6.6772384106
171 4 5.7034316899 4.3530420709 0.98137413
172 4 14.0451001033 12.5095175641 7.6075380418
173 4 12.3788108827 0.7567524115 8.6574999024
174 4 0.8504693498 13.5034956032 4.53516453
175 4 8.0432502875 0.3374583389 7.6803305256
176 4 3.1566686511 2.9138860449 4.3139639779
177 4 14.1989558556 4.7640346027 9.9225394481
178 4 3.3578635067 13.2063829645 3.6833040079
179 4 4.1354125324 7.6008004294 11.7878977361
180 4 3.5404928092 5.9737896184 7.5801751279
181 4 11.5060035321 17.0291765765 3.6278415533
182 4 8.0936718105 15.2336308819 7.6438647346
183 4 6.6457933355 0.0798799768 2.8608229001
184 4 9.4331915002 5.5474494851 13.7652593688
185 4 8.0542882621 10.7813885795 12.7296937519
186 4 16.4226198532 13.8958460693 1.9805511384
187 4 7.6188418792 12.5818653682 7.0253080078
188 4 5.6089627005 16.2113944109 8.1802508724
189 4 9.0984171141 4.753379545 11.0043743134
190 4 4.7912264779 0.3169230695 5.6440548511
191 4 15.1627629714 8.7653811392 4.2042421836
192 4 8.3639981091 2.1251666935 9.4621929746
193 4 14.2421858906 6.7008980372 7.5275510407
194 4 8.022626843 4.9406870786 2.746962509
195 4 1.3994224275 12.8898800964 7.8996557959
196 4 12.5525654176 17.3227302257 11.8433657038
197 4 14.3302207441 4.6152864714 13.4438202994
198 4 10.2171036269 16.8041410317 9.6555641249
199 4 2.5734984884 0.0606853586 13.4367381634
200 4 0.1514575294 16.0555597537 12.3923232691
