# LAMMPS data file written by OVITO Basic 3.5.4
200 atoms
4 atom types
0.0 17.563496 xlo xhi
0.0 17.563496 ylo yhi
0.0 42.15 zlo zhi

Masses

1 183.84  # W
2 92.90638  # Nb
3 178.49  # Hf
4 91.224  # Zr

Atoms  # atomic

1 1 13.5038663731 15.6032487891 2.035104846
2 1 4.3690959675 0.2663850169 1.732718217
3 1 13.6316172714 2.2014705878 2.772884958
4 1 16.8173846391 6.2881576584 10.59500946
5 1 11.1381245829 1.6172502244 3.8050714395
6 1 5.5497477149 9.3264938792 1.051634913
7 1 15.3296959339 4.5914447334 2.8249372575
8 1 4.9906280462 0.8880911498 4.6821227385
9 1 14.5539892041 7.4256493976 12.4158578475
10 1 8.1786765607 13.9760458585 12.5944381245
11 1 7.7431127493 13.2131397558 7.081886202
12 1 3.1248684042 3.2035676196 10.406973252
13 1 17.7377448489 11.0669731043 13.3526171505
14 1 4.4296564824 6.0424529555 2.0187814155
15 1 10.1365902855 7.0586766584 3.6027944325
16 1 8.8164770032 0.743564654 10.707095583
17 1 18.1868945514 4.0182300079 0.7903702455
18 1 11.0427665672 16.3867835691 3.0911490705
19 1 0.1200837298 14.7769045684 6.9432957375
20 1 18.1675820825 9.9938884612 5.376298254
21 1 15.7592477606 8.5084045016 9.4173548985
22 1 13.6471277704 9.3701238866 11.13769071
23 1 17.0453886751 8.864713213 11.8545176355
24 1 6.649751577 4.2315168881 1.089752844
25 1 1.8143549775 10.8072386807 11.1966176745
26 1 17.094294581 16.5824948345 8.897230221
27 1 1.2019504721 14.8025291821 10.1007665685
28 1 3.4365094569 2.9380245967 5.8692378675
29 1 3.3455182532 12.8872886054 10.786653708
30 1 15.3922054699 4.6071867193 12.6675548865
31 1 4.976309933 16.4077724737 6.589618038
32 1 16.3889243836 13.7996275666 9.2028113985
33 1 13.7784170106 13.4275556175 8.141058378
34 1 8.2206029089 4.8638573666 7.7215288905
35 1 12.3827956245 11.1582065086 12.445215744
36 1 10.798604993 10.4453934285 4.141546038
37 1 12.4223177057 8.4880106482 8.7958632645
38 1 2.3489863907 1.2612328914 3.6264161355
39 1 8.9228457502 4.2457118812 13.277765073
40 1 4.7604471905 7.8880953692 5.431395891
41 1 5.8689398414 10.7203524173 2.9539322745
42 1 6.0569254518 15.3952421984 8.3565978825
43 1 13.6450236636 2.9192104041 12.4076824335
44 1 9.3562843786 15.2217166143 5.9057380815
45 1 9.4230746656 3.7536055558 5.0455762875
46 1 9.0177290246 17.7532853814 2.2371099855
47 1 15.1380543061 15.1013727691 10.6137759045
48 1 13.9308741275 16.756481636 4.245310908
49 1 10.5992247133 3.7278495671 2.621824416
50 1 17.549677217 5.1109216597 3.1234966665
51 2 9.0270380288 12.3142670783 1.834555146
52 2 12.3426558351 5.0765890646 13.012882671
53 2 18.1813023343 10.4811518282 8.0858874
54 2 6.7382951319 9.9043300875 10.2879783225
55 2 12.3458228847 4.5619357769 4.6914636
56 2 0.3297109043 13.7852853914 3.4834332195
57 2 14.6304395894 2.2140601017 4.818593058
58 2 12.1460138801 15.8452619965 6.2426480895
59 2 2.5728587899 12.6908259737 13.336914168
60 2 11.5223636438 10.3034547381 6.956806077
61 2 8.8538842639 8.6588906429 5.518955772
62 2 -0.6690235962 16.5878012935 12.5611134915
63 2 3.1113954464 14.5634162349 1.4635908885
64 2 7.7673261361 5.0614254447 3.6808166115
65 2 11.5029949717 11.4296275067 1.3423700175
66 2 11.4487118258 13.454509261 12.200024979
67 2 5.6789920373 12.7422137772 12.871503141
68 2 5.577892866 5.3223076427 10.902478536
69 2 1.2572087432 2.4709887568 8.2578100845
70 2 15.863103347 5.2703033605 5.5186341675
71 2 3.9602239278 13.1145159836 3.2479125075
72 2 14.9922946772 10.8854740442 13.149266583
73 2 17.911089529 7.3546712707 -0.743481321
74 2 2.1855018572 1.8836879318 0.9746230695
75 2 14.4871146123 12.3873306948 2.6648414415
76 2 3.6061157469 10.6107728876 9.6989624205
77 2 10.2665743823 17.6352016069 8.481039435
78 2 11.5459937469 14.7456599872 9.175642773
79 2 8.7703708942 12.4568814364 14.7149835495
80 2 7.5642982696 2.7872944984 9.0183604695
81 2 14.371529772 6.2958917439 9.928563165
82 2 10.0754001192 5.7832034601 6.3976134075
83 2 2.2539104447 4.2523320897 3.0871431345
84 2 17.5487795467 13.1689322608 11.8109834295
85 2 3.6469375268 11.1466704531 0.715451571
86 2 12.8854194982 11.6328703505 5.604608787
87 2 5.0876642539 4.5879578526 8.1511537245
88 2 11.6037881869 6.0105692387 8.567238714
89 2 13.2052231856 13.4997233201 0.8942961285
90 2 12.1410391955 6.6408900907 11.2390332195
91 2 16.6023106732 11.0759037907 10.378961205
92 2 3.1516274442 10.1423735934 6.6351126405
93 2 4.3966829507 11.4725384645 4.9990064385
94 2 9.1581421498 10.4693099923 7.4308346715
95 2 15.1845698202 6.8821166291 3.3852355215
96 2 7.1042539305 6.7054988158 6.422062515
97 2 16.561001155 12.468173008 6.8091710655
98 2 0.8380945509 12.9262491817 1.1801633295
99 2 1.931683346 1.7308967572 12.818420274
100 2 2.6534181552 5.840140977 9.726819777
101 3 2.6362784663 15.3170523244 7.869824814
102 3 4.5557838112 0.9485647255 12.220619469
103 3 16.504514493 2.4734211253 13.534439184
104 3 15.2369287094 0.1052028822 1.189873425
105 3 7.5515420781 -0.4920239526 4.9613091645
106 3 16.5546768914 10.6637185732 2.722323504
107 3 4.9092929013 3.5338965833 3.4267229235
108 3 0.7627908861 10.1624848502 -0.550601235
109 3 15.8698897062 14.8074223721 2.0569895475
110 3 0.1131589702 7.7280021711 2.065428399
111 3 15.1362396457 2.1458355797 7.580679186
112 3 4.0358368857 7.6399428418 11.5216852185
113 3 11.9104986393 13.953630798 3.7216102245
114 3 7.6635848881 0.0473515365 7.594337472
115 3 9.6201230399 1.2077314968 5.9501464785
116 3 14.6792931561 14.1954485236 13.1979865035
117 3 7.8322329138 2.0288997553 3.052975923
118 3 10.8143482083 13.0832297769 6.481766304
119 3 6.8368686725 3.1018793686 11.8879636605
120 3 7.8944533547 11.5793719416 4.6905038445
121 3 14.7380412939 7.1993711507 7.143309711
122 3 9.9791500535 7.0836447487 13.429118136
123 3 5.9441669293 12.5198302355 1.0788591765
124 3 0.8180589928 16.4357080923 1.6932468495
125 3 14.0128088901 10.7759997198 8.073252516
126 3 9.4907346968 7.5481488107 8.276988756
127 3 6.6845796383 2.8912013701 5.5286506935
128 3 14.3385434189 14.158136984 5.0285856225
129 3 16.1084093586 8.8656799078 -0.0045804405
130 3 4.816894159 2.0092595515 8.2647715785
131 3 3.6480872333 4.9048049011 12.6313868145
132 3 14.9237735077 15.9723632211 7.7937436425
133 3 8.6677591546 15.0403106407 9.394964397
134 3 2.0883031871 6.5901228055 4.110233646
135 3 4.2818475448 7.8056029655 8.132685702
136 3 13.0851700164 3.668041648 9.7823924445
137 3 7.0790092152 17.4900301795 0.500722611
138 3 10.8425464011 2.4250354502 11.7473681205
139 3 2.0676697676 10.9010725363 3.2176960155
140 3 8.3202068998 14.6952072642 3.010132977
141 3 12.9046659284 8.8358108996 13.646720883
142 3 10.7775386333 15.3001258564 0.848873181
143 3 13.4816719101 4.4957405412 7.165657641
144 3 5.1053763371 2.6643412446 0.311602305
145 3 3.8349366611 10.4872584801 12.593511246
146 3 7.2138657771 9.8098739573 13.13047527
147 3 0.935876329 4.3525804853 12.6696767175
148 3 14.2851549576 12.7447992994 10.807617432
149 3 16.6202029579 5.0255284691 8.082302121
150 3 9.5817499626 4.8092733581 10.728234651
151 4 16.8804595441 2.0926139716 2.4098626035
152 4 -0.1390226231 14.4521286552 14.417492643
153 4 6.5286068364 7.5482345205 3.0750452415
154 4 7.4003906315 6.6932823506 12.651663915
155 4 10.3072498583 3.0998544732 8.2222177815
156 4 12.3834509185 1.4440040755 6.151519368
157 4 8.132550605 6.3439017358 0.704403213
158 4 9.371378974 11.8058549789 12.1358022885
159 4 13.6977657883 9.5577144939 2.530160811
160 4 3.8885829546 16.8329896297 9.461025249
161 4 3.1441907087 8.3880978911 1.885275084
162 4 1.7478813604 12.5618614378 5.7191661645
163 4 13.2494317345 3.8097783582 0.6782310135
164 4 1.6247911114 12.5991870282 8.60943255
165 4 12.6479373215 6.6661060019 2.262176169
166 4 6.7746942479 9.7620710389 7.14078324
167 4 8.1991487473 1.4221791484 13.1672793855
168 4 5.8176010401 16.3280366608 13.6273896285
169 4 10.1631257421 8.9282591709 11.145853479
170 4 6.6306135136 0.1300274787 10.337811003
171 4 0.9187770362 7.4854209603 13.004646561
172 4 9.5017521022 16.1291156665 12.313066221
173 4 7.029567974 7.3796225 9.209346756
174 4 15.4753315645 9.8243236211 4.9018068525
175 4 5.6944321066 14.1886577735 5.345376171
176 4 1.9334249423 18.0033115825 6.469751025
177 4 0.0789326343 7.8275896523 6.6755437635
178 4 8.980148061 9.6268279045 2.2751023095
179 4 2.2298173678 5.0072041224 7.438875627
180 4 12.7301177975 0.6197074071 8.801777331
181 4 4.7964441024 5.2945859475 5.235297231
182 4 2.3396327753 15.6882775372 12.533837805
183 4 12.7943840344 15.9731470799 11.736363177
184 4 15.3409571206 5.7613523634 0.372760269
185 4 15.2210592126 0.8205133157 10.5508838895
186 4 12.0963497581 0.7915205503 1.0332798525
187 4 11.7322836018 11.8452530619 9.8790331215
188 4 9.5815154899 9.6132706419 14.1712788975
189 4 2.7409377583 5.6426932088 0.1970921355
190 4 2.1095260375 15.7884800921 4.334709372
191 4 5.7483348271 16.1772677472 3.0900708735
192 4 5.0703355819 12.6566342378 7.1787211905
193 4 1.4276809136 7.9626525853 9.90486222
194 4 12.4347544172 7.9009474573 5.491404846
195 4 16.5084940299 16.8658497013 4.544844825
196 4 6.8667215223 12.295558618 9.8404616565
197 4 0.2432068225 2.5969355328 5.248468263
198 4 5.6107571528 15.0739259426 11.3708944365
199 4 0.7949524575 0.2724301966 10.630131369
200 4 17.1538330761 3.2048936636 10.4640818655
