# LAMMPS data file written by OVITO Basic 3.5.4
200 atoms
4 atom types
0.0 17.670372 xlo xhi
0.0 17.670372 ylo yhi
0.0 42.408 zlo zhi

Masses

1 183.84  # W
2 92.90638  # Nb
3 178.49  # Hf
4 91.224  # Zr

Atoms  # atomic

1 1 16.0649236372 16.4941675428 8.7163842586
2 1 2.4478078954 11.1196783095 6.3890845322
3 1 -0.3796726809 6.0571925374 7.5014226238
4 1 15.7309534297 15.6800770713 12.8332400933
5 1 10.2105321922 10.7903412735 2.3749196695
6 1 11.9229668825 7.9397861953 6.9227289929
7 1 -1.0412079395 8.1354011008 4.9073591902
8 1 4.3528826841 15.2778444498 11.4282842573
9 1 19.3830005343 1.4861019635 13.6740813206
10 1 3.8985717655 10.7583536593 11.1930992431
11 1 6.2664139827 9.8191366331 9.9733251485
12 1 12.2566260915 11.4036281114 -0.0378826423
13 1 6.895798883 16.5132068385 3.3562467266
14 1 6.7798197497 6.1316591957 11.9815725276
15 1 10.0140897832 14.0399981368 13.1493336343
16 1 11.6581268811 6.8553870956 11.9250375746
17 1 5.838107667 3.7072914022 2.2815889913
18 1 11.7108252315 5.1225129093 7.7682787805
19 1 15.3600784736 10.1912345557 2.7530845279
20 1 11.7936100408 4.3805216198 10.4313162816
21 1 12.9923071145 3.0143081826 7.0163323546
22 1 8.477774277 8.8656378822 2.0664383645
23 1 1.5208192968 5.9720335369 10.9263279024
24 1 0.4706160777 16.5758933667 1.7478185789
25 1 7.8113939791 3.1345327994 6.627166861
26 1 16.9974246851 6.5002726977 12.8090034972
27 1 4.1040781918 1.6104082595 1.2776007953
28 1 13.31356667 2.6139228217 11.8190985739
29 1 12.7441429965 6.9224670084 9.5491497305
30 1 4.1650317866 8.5692668689 7.585820905
31 1 15.8840756849 15.6125582265 5.6793947098
32 1 18.0309382378 14.6105104819 12.3888042533
33 1 9.5837543787 10.3173692051 13.639754165
34 1 17.3941757806 17.574661667 11.6726387292
35 1 17.3891213474 17.6982756378 6.3219653906
36 1 11.3052188058 12.0942306018 11.5873982251
37 1 10.6696621747 2.9326146955 2.6878724741
38 1 4.333603248 7.328230347 4.9308761225
39 1 5.2114137878 6.0084647195 2.806555927
40 1 5.8008640007 8.778979904 2.641732146
41 1 16.5173703316 14.1966931645 10.1738098166
42 1 11.3839546261 9.7214283111 8.8442392896
43 1 11.095524678 0.575916475 4.2336746078
44 1 1.4131683866 7.241344421 8.7669655524
45 1 15.504417847 9.300724673 13.9169074082
46 1 9.174196151 13.2126458744 2.6541059522
47 1 16.1380925835 2.1605254613 11.2355186933
48 1 3.597244743 16.8629301827 5.274786767
49 1 6.6281864001 12.5850732475 8.6056336462
50 1 7.5349077889 0.8805337208 12.3633318881
51 2 10.3987764322 0.818976506 1.8359050838
52 2 12.4249552921 5.8840725455 4.187328601
53 2 2.8381075381 17.2309170932 1.0498702594
54 2 5.3993795427 9.9022327944 4.8789068148
55 2 1.1598902862 8.8069185292 11.9981888302
56 2 2.1277794347 14.6610493362 1.8134487756
57 2 15.8670395025 5.437556028 4.7208153038
58 2 16.805843042 4.4128458546 11.6429883278
59 2 13.9363610516 16.1359924598 7.5969686959
60 2 17.8103922044 12.1331637324 13.3308449633
61 2 11.6152507836 10.9915396632 5.3236055844
62 2 14.6089355217 4.0811941766 1.5910451086
63 2 1.4841614032 11.8849559686 11.2602735151
64 2 4.9565078927 2.9625838231 5.8908520238
65 2 2.7496874704 1.4158945716 6.194955127
66 2 0.3809917742 14.9262954028 7.8623617766
67 2 9.5381609315 9.676936965 6.5793030718
68 2 5.3999142481 17.9662650297 10.2110487055
69 2 11.1579906799 8.6955783988 4.3476176945
70 2 3.4658027973 2.1354962629 8.6121059551
71 2 3.3176176441 9.8778070392 0.7879219805
72 2 14.3919035952 7.5138404646 12.2276563978
73 2 13.1535307051 11.486840367 2.9759610442
74 2 -0.2119128197 1.9546364714 1.0643449579
75 2 9.6084094953 16.7711500938 11.5211060395
76 2 5.6669998004 7.8048992339 0.3753040147
77 2 1.2340387012 6.8817177169 4.142058061
78 2 7.9503248051 18.256225232 9.9072437306
79 2 4.1446870038 4.9458948906 9.4986524045
80 2 10.77304516 4.0546541613 12.6170759153
81 2 0.5347188862 1.4303245508 8.3397766219
82 2 8.1798857322 6.3513863841 1.5923046262
83 2 3.8471000923 11.2212430134 8.2887894835
84 2 14.6019087215 11.612867934 13.9689318463
85 2 17.5863451403 10.7224054079 5.7572172065
86 2 5.5754492497 12.8439514422 10.9053838634
87 2 15.0084935557 11.4934824832 4.985945455
88 2 2.7153458093 7.9342297468 1.6300032178
89 2 14.2670104661 1.4351543935 2.4167606746
90 2 0.0865245668 4.1555544593 2.7768325838
91 2 -0.5825757314 2.8637774642 13.6418168902
92 2 13.5308638288 10.1643835419 7.2500097643
93 2 6.7693060551 8.2986769284 12.8082766241
94 2 13.5254581086 13.4168194246 4.9299889471
95 2 4.3771638957 15.6722093382 3.3221367
96 2 16.3861471452 2.3297410077 3.6187844767
97 2 19.7569610908 16.5700838785 11.0965425883
98 2 16.3589805385 -0.4665280371 3.6401530198
99 2 4.5715715614 6.9864913604 14.167150231
100 2 11.549642106 13.8312288762 3.7313645702
101 3 13.1026377366 10.5233426594 15.8831662025
102 3 8.7461716778 3.2224717028 1.0883330431
103 3 0.7947806424 3.8600185478 0.0395700566
104 3 14.4893963386 0.5290498775 5.5935023947
105 3 7.1813725921 3.4196401874 9.1005282209
106 3 1.1430447672 15.750359739 4.6257314789
107 3 5.3617186788 15.0662670137 8.7217501428
108 3 14.717755327 11.3699183428 9.3283253374
109 3 1.6000765697 10.1539901825 3.4348860014
110 3 1.1339971833 4.0094823292 5.7193680665
111 3 2.8353156193 13.4139059337 13.0875104038
112 3 9.6658463327 6.3395072998 10.2561161112
113 3 7.5887865202 7.4886773247 4.6600645716
114 3 2.4881283269 1.7346493519 11.0320824283
115 3 15.7665463299 6.7227000955 2.2490637516
116 3 1.3565247722 4.2635794513 9.2220135703
117 3 8.1926198858 10.1168758633 4.2241930272
118 3 1.4791437244 9.717828503 9.5693609592
119 3 5.9894423874 5.9658724083 6.6315569371
120 3 15.6858559898 13.986805016 7.6998835822
121 3 16.2865631132 8.2535900907 7.8851916994
122 3 12.575869811 8.250588778 2.078061125
123 3 7.1985617999 13.9405197736 1.2177419033
124 3 2.9774484934 13.982398732 6.3517010321
125 3 9.1102999091 12.8678340102 6.7376918628
126 3 8.6124742858 7.8800891406 8.486031636
127 3 0.008350311 11.8810545272 2.1964668055
128 3 9.223265007 9.0810160386 11.5208456544
129 3 8.1357198743 11.5393588331 11.3337665791
130 3 2.7595770475 16.8090853785 8.2119852029
131 3 10.910138444 3.5043652036 5.4738897826
132 3 9.761499237 6.0895091739 6.2300324801
133 3 8.2824311418 1.4815894806 3.4507347192
134 3 12.3174918646 14.9169134955 13.7919000744
135 3 12.1576356073 16.2545064078 0.4830597742
136 3 13.7590464668 3.7053351153 4.1702034024
137 3 5.921115123 7.0359009012 9.5121500227
138 3 11.7469367571 12.3142101231 14.440756469
139 3 6.3230895805 12.9924203816 4.9935856802
140 3 1.372772856 8.5992865338 6.5466620582
141 3 10.1221179558 13.3570253596 -0.1916464169
142 3 11.0207949078 1.6210726824 11.003545237
143 3 1.4397721919 4.5191287245 13.088121503
144 3 6.5445606578 4.1051048404 13.9367560486
145 3 9.5459719427 13.7542076122 9.3418814786
146 3 2.3415455231 18.4975397837 3.4985764562
147 3 -0.0322296983 8.7569380587 0.9969480439
148 3 13.0926509725 16.4777176634 3.4398061776
149 3 7.8640193509 14.8423058275 11.1154790326
150 3 15.9955031069 3.3003148158 6.8057622158
151 4 14.9720448794 0.7821065681 13.5175801097
152 4 2.8431229198 14.1467816084 9.8485171322
153 4 5.2490550375 2.8636325671 11.1558298205
154 4 8.1047643865 5.8241895985 14.7611480609
155 4 12.0083478229 9.5863245343 13.289983583
156 4 11.5345114966 5.3754952076 1.079680963
157 4 15.8444885738 10.7688316598 11.6813518769
158 4 11.6962977119 15.6623379616 10.7900888098
159 4 6.4392837621 16.4227484935 13.1554857629
160 4 8.7670372064 16.6074909958 0.5351558818
161 4 6.0109318569 11.6208515848 2.0109360463
162 4 15.419787014 1.9033994607 8.3798958622
163 4 10.0929533603 6.3744248384 3.3266870784
164 4 16.1412101672 17.086909746 2.1204e-06
165 4 16.6655217344 7.6779174669 10.4640408389
166 4 13.1177443143 13.5754193184 0.7273845605
167 4 14.1793751397 13.4745320965 11.4549020626
168 4 5.574746499 1.1112893417 7.1942491814
169 4 13.2100536308 9.8750485174 10.5270370747
170 4 11.6147355156 15.7999479273 5.8649738141
171 4 6.0706828062 5.117917199 0.0970740324
172 4 12.5523243937 13.3459622931 8.342072167
173 4 12.230293173 0.931490656 8.0077588769
174 4 0.5540907383 13.0171551916 5.4088007119
175 4 9.3315278422 0.4032431902 6.2050121842
176 4 3.4330330925 3.9503305822 3.2488009697
177 4 15.0359888313 4.9811251948 9.6191568569
178 4 3.4856976925 12.4431467634 2.9484382522
179 4 4.0290918478 7.0410291966 11.4752053166
180 4 3.0663596207 5.4477011186 6.8995555654
181 4 9.4630471841 15.7069947024 3.0462654506
182 4 8.4679516706 15.5077131947 7.587379399
183 4 5.9883386959 -0.0701123253 1.1452237992
184 4 9.481401046 7.3358402694 13.714021175
185 4 5.8658144569 10.7045839542 13.7558316463
186 4 16.1982211486 14.4689699187 2.4233033808
187 4 7.0018654676 10.4146140332 7.2578951078
188 4 6.0801387523 15.7696462433 5.5769136574
189 4 8.6089352637 3.1421031401 11.4035256187
190 4 5.5403334495 1.1239151759 3.9297793039
191 4 13.8821213146 8.5489793381 4.5535937746
192 4 10.025952434 2.888387168 8.5267119341
193 4 13.916786697 5.7704960528 6.7642316374
194 4 7.9445715087 4.3654030262 3.6837471715
195 4 0.3887656777 11.9300159473 8.4787154078
196 4 14.57920141 17.7228148368 10.7557137331
197 4 13.9932410955 4.2481058599 13.146644119
198 4 10.2509717221 17.1760350382 8.8109799674
199 4 4.4774201086 1.1063290915 13.2266145809
200 4 0.6453336479 16.7615771698 14.52585321
