# LAMMPS data file written by OVITO Basic 3.5.4
200 atoms
4 atom types
0.0 17.520744 xlo xhi
0.0 17.520744 ylo yhi
0.0 42.048 zlo zhi

Masses

1 183.84  # W
2 92.90638  # Nb
3 178.49  # Hf
4 91.224  # Zr

Atoms  # atomic

1 1 10.1186089841 0.010300095 0.9721342022
2 1 4.1574447815 17.1421520843 7.628842224
3 1 14.0832751219 1.6333333394 0.7106061542
4 1 3.419861932 5.8128297293 10.6975830528
5 1 9.8094556314 2.9559504757 4.7921920589
6 1 2.2933677991 5.9681961532 4.9143112243
7 1 14.7997580898 5.3186173727 3.2100002438
8 1 7.053643388 16.879879512 10.2814798291
9 1 15.9141723706 12.6924702284 12.5535472934
10 1 7.56145447 13.5788397616 13.0806320083
11 1 9.5781031425 9.4591944084 5.7290736384
12 1 9.0033426695 2.7875391571 9.7319881555
13 1 17.0277043068 9.4599096051 2.396694793
14 1 6.2599070796 6.4273346084 0.8004105907
15 1 9.4522947394 10.1890514858 3.3689938234
16 1 9.734488748 14.7870856861 0.9979861536
17 1 17.2433757298 0.9486177581 3.6145545638
18 1 12.5023077822 2.6241911583 5.4231155712
19 1 14.8136036825 15.5216957909 8.0332027027
20 1 16.0855664207 7.0145666974 1.7628817421
21 1 17.5296149279 14.1784507818 4.9982297818
22 1 13.1148396503 12.3410387949 8.1785912314
23 1 12.6644974846 5.8856653894 12.1833516557
24 1 4.4546142957 5.5582182775 6.7954466592
25 1 1.0615562987 15.4460799392 0.6977600698
26 1 16.4976332947 16.5024590332 5.3908025242
27 1 2.0933287342 3.942675852 6.4157107507
28 1 5.3395895281 1.4520675765 6.0280908422
29 1 0.2376801056 12.4368294329 10.586173513
30 1 15.7162272099 2.6398219397 12.4264950566
31 1 0.4355544826 10.3563647794 12.556048729
32 1 2.0646206447 15.8381311152 8.7776705318
33 1 12.1117334296 17.922878189 7.6120007386
34 1 11.430349593 1.2843905523 10.0494383616
35 1 15.4025692739 12.8221596515 9.2423358317
36 1 13.482137344 12.5578310199 2.895856272
37 1 14.0025539006 7.7651586993 4.569082007
38 1 3.3605808451 14.021579326 6.3631305677
39 1 13.1253580538 4.3623649504 1.0354912877
40 1 3.8782734516 10.1381970007 7.9231500518
41 1 4.8844184701 10.0956019695 3.9401242387
42 1 6.4732608586 1.4882102433 8.6025006662
43 1 0.1117219002 1.160660635 13.4642039558
44 1 1.9923267261 14.4683158978 10.7348510362
45 1 11.6154304979 0.7573713034 2.657991577
46 1 8.6592007415 -0.6748952043 3.3503808557
47 1 16.8400518823 16.8532910821 8.0294604307
48 1 14.7786540032 17.7399027519 12.3939225734
49 1 6.8340303231 4.0255426636 1.1616003878
50 1 12.4187848187 8.8088757269 12.6437410944
51 2 11.6938200586 10.2979590288 1.8180213869
52 2 15.4201890101 7.5785429773 7.6345632749
53 2 16.2827205198 7.6619842941 -0.5419957766
54 2 8.0621181398 8.9956836515 10.0694103206
55 2 13.8724462573 -0.2951404368 2.615900688
56 2 -0.4820368412 16.0381424973 2.5732408896
57 2 14.1092487488 16.8699780139 5.5444917485
58 2 4.7014088676 11.599918332 5.93975304
59 2 1.4480964999 8.9376274398 0.6557066035
60 2 13.3365180604 9.4129655749 8.7090145574
61 2 7.4667648355 8.6599988114 3.0978195437
62 2 2.0003976568 16.3288813728 12.9554038138
63 2 0.3770474621 5.0828491307 0.873693527
64 2 9.519459285 5.9561685128 4.7722150541
65 2 15.5655621273 11.6652640492 1.1658733056
66 2 6.099973173 17.491598768 2.1981218515
67 2 3.8052426104 5.1104700579 1.9751795712
68 2 3.2195547998 2.8816257276 10.8091094861
69 2 2.4954990159 11.5074710023 11.6214549811
70 2 2.7638332401 1.3824678226 5.2572643834
71 2 6.4784832668 11.0999102884 13.5000608083
72 2 13.6769874653 13.2409862038 11.5796945894
73 2 13.4506982962 7.2743008643 0.5977880064
74 2 2.3400977258 14.6089719051 3.652805209
75 2 11.9545700783 13.2589086984 0.9047787725
76 2 9.5799037494 8.1413935493 7.7975997696
77 2 12.7574622018 3.0034635797 8.0862807341
78 2 8.9287955831 15.1762599559 5.3229025728
79 2 5.9211790615 12.3591021563 8.5505949331
80 2 9.8549338762 2.1039450786 7.3281124051
81 2 14.7858385595 2.7206496871 3.4426446797
82 2 8.3121710444 5.7996092767 2.6696779776
83 2 3.0683089045 3.4176534423 0.3480363418
84 2 17.161935282 16.1534904906 13.5515195712
85 2 0.3629267937 7.3122359032 12.2258647066
86 2 8.9823347718 13.7315836805 7.2453240979
87 2 1.9629482929 1.4133887821 8.4934146989
88 2 13.199958228 5.740781101 9.0191311718
89 2 15.0966162604 14.6892260234 3.1463656416
90 2 15.2710841498 10.2657748238 6.9765246893
91 2 11.0581881408 10.3008662459 7.9574633222
92 2 -0.0215650573 2.0602225876 5.9983200173
93 2 1.4719094687 6.7972807378 2.589159001
94 2 8.5759896472 11.2615137468 7.7948603424
95 2 9.3962173205 7.2237692866 12.0825319046
96 2 4.2742412148 2.7810939762 7.6552887341
97 2 16.1491483246 14.2938411754 0.1947074688
98 2 17.6145267608 14.0798659355 7.6198368038
99 2 6.9904776017 8.8229203553 12.7319910163
100 2 14.4104974426 7.8774000895 11.0323452614
101 3 3.0880050241 8.4171048827 5.3812012838
102 3 3.0830336882 1.1664876841 13.2697016813
103 3 4.7566458164 4.7469638532 12.7448513971
104 3 0.4038181077 4.1123495402 11.4440691859
105 3 7.5921963674 17.9665370797 5.8744276877
106 3 3.6325662171 11.3595374036 1.484968009
107 3 5.0003588398 3.6630298851 4.7364902323
108 3 5.4449519238 4.238098548 9.634048272
109 3 6.0578373605 15.5529503453 6.9936865805
110 3 14.8119749542 10.1552758715 13.0844672064
111 3 9.1372295373 15.5106650809 13.9096259885
112 3 12.0706863562 7.8020272505 6.9021501869
113 3 12.0238859961 14.8854094733 3.4166274797
114 3 10.5864282672 5.0916291259 6.8792298221
115 3 14.0166770219 5.1418379716 5.9653539648
116 3 0.1879077017 0.473375111 11.0726394394
117 3 4.3666526269 16.6921372061 4.4081374003
118 3 4.5931886633 10.3671494981 10.618256137
119 3 7.6848204814 2.3952905223 3.3036726758
120 3 9.4820598553 12.976555251 3.0981172435
121 3 10.6658312277 7.1241468618 1.0967737248
122 3 7.476453807 6.6886225149 6.580711728
123 3 7.8778659661 1.9055536645 0.3386949581
124 3 15.7872945013 17.0359825079 0.3654934099
125 3 12.9769494677 10.6681995067 5.5879340602
126 3 11.2651083026 8.1691954659 3.625841088
127 3 7.8099482037 3.7987359317 6.5639917613
128 3 14.6416996036 13.7200560822 6.0710617958
129 3 11.8094301623 11.287324606 13.7541413146
130 3 5.3860394733 7.2640864458 8.7652680538
131 3 5.939405541 1.4926105781 11.6782904218
132 3 11.7328469902 14.9013063947 7.3209272429
133 3 10.5126729432 13.6092023349 12.2533607347
134 3 1.6107333317 9.8019716456 3.4373848954
135 3 16.4137374897 11.3596784456 4.5234906221
136 3 13.3367323391 3.185785493 11.3334022138
137 3 4.8761062787 2.1599729138 2.4581626618
138 3 10.2530675537 3.310145281 1.8551014157
139 3 6.552433947 11.3878915741 2.4810918566
140 3 8.058180703 11.8653423605 10.6130009779
141 3 12.9473502732 11.0180458385 10.8423421229
142 3 9.8052163122 9.8933896316 12.1242494074
143 3 17.1629264305 5.1096241564 3.9958121894
144 3 5.350482525 16.1019129244 13.0390675603
145 3 8.924845181 12.644283627 0.2972541312
146 3 5.4925356364 12.7953353925 11.9028158093
147 3 -0.7444613184 6.7602897166 10.0142652096
148 3 11.1698301463 7.7482275283 9.9524134426
149 3 1.5160436972 4.1282445344 8.9063155469
150 3 15.0731502023 5.3679692788 12.3382913875
151 4 16.2720656298 2.832571499 8.9704219277
152 4 14.4383634851 14.8315494798 14.1210374458
153 4 2.5215684814 8.6343843597 10.6233725376
154 4 6.1858577576 6.5611915157 11.4738387494
155 4 14.3692676279 0.6760282708 9.6788903616
156 4 12.4511692858 16.2001834486 0.4452130541
157 4 5.3206208698 6.5290395488 4.0982764378
158 4 10.7637029797 13.0290940052 9.4800844742
159 4 8.591390206 6.0833903144 -0.3647727072
160 4 3.9904594763 -0.2162692308 10.4516354707
161 4 1.9244343687 3.4666274259 2.9635144474
162 4 0.6703964029 9.7966439378 7.062991776
163 4 10.7978864769 4.6571773989 10.4779188346
164 4 16.4399749791 15.5476149283 10.5899670835
165 4 10.8162370033 5.7106077518 13.5883834733
166 4 6.0951717883 9.5895855373 7.7429903501
167 4 6.8174276661 14.8206083008 2.415330887
168 4 2.5305355981 0.4006240761 2.6924928019
169 4 8.2295558306 5.6543898165 9.1356066547
170 4 12.5923920891 15.7424329867 10.1599821331
171 4 1.2908106785 7.0891567096 7.6078417709
172 4 7.9922620574 3.7279968039 12.3097037933
173 4 9.2822629272 -0.2128328873 11.6466686438
174 4 14.3631103128 9.13726563 2.1748646822
175 4 10.9376333327 12.3539745354 5.2757570938
176 4 14.7036524288 1.609209027 6.750038183
177 4 -0.7429475261 8.1958121042 4.7615865811
178 4 7.7874380774 12.076478539 5.0781605069
179 4 1.3908294225 16.2839979573 6.1714244851
180 4 10.6480199898 17.3500409681 5.2385353632
181 4 16.4765379685 9.9256971827 10.356297097
182 4 3.7967548612 15.3822991748 1.8170378842
183 4 12.2820359374 17.2553842726 12.4129152346
184 4 13.6740595738 3.7780929912 14.0790441082
185 4 15.3077154701 4.2729851526 -0.1560817555
186 4 17.2699497927 2.2177631606 1.0344644755
187 4 4.1177632749 7.729296014 13.3183903219
188 4 8.0417939015 8.9808954427 0.4780365638
189 4 2.4541451543 6.0625168008 13.3420212979
190 4 5.1786099834 13.3786545737 4.23959472
191 4 8.5111812912 14.6167356971 10.8027598176
192 4 0.9187916699 13.6047424295 13.0453541568
193 4 0.4066822237 12.6956856354 1.8404258227
194 4 12.1308336687 5.47485668 3.5389800115
195 4 1.9990494355 12.0159639917 4.7584914278
196 4 4.8910859892 14.5887929138 9.7778541139
197 4 16.4955937049 4.9925638608 7.1013408134
198 4 5.0445794456 8.5332181822 1.3205695795
199 4 9.4494710963 16.9307580005 8.5748280365
200 4 2.5603771045 12.4329326442 8.8050526099
