# LAMMPS data file written by OVITO Basic 3.5.4
200 atoms
4 atom types
0.0 17.616934 xlo xhi
0.0 17.616934 ylo yhi
0.0 42.27 zlo zhi

Masses

1 183.84  # W
2 92.90638  # Nb
3 178.49  # Hf
4 91.224  # Zr

Atoms  # atomic

1 1 10.6941610657 15.8056644337 4.0815975405
2 1 2.1518926329 3.5875557774 5.780004027
3 1 13.162725134 15.2985738489 3.0821153592
4 1 2.6063431142 7.7662752576 8.7373945653
5 1 9.4256694121 0.6391790087 3.8197040334
6 1 9.2911396335 8.1943903605 0.2388935547
7 1 17.2930752078 7.1820196832 12.1849298475
8 1 14.6888387266 -0.1854384898 6.96973122
9 1 15.4897184636 11.5100817886 12.198843018
10 1 10.1859759407 16.7141439993 6.2695853118
11 1 11.5457578417 8.6320319966 7.2775798257
12 1 8.2182426321 -0.9960512305 8.4709942308
13 1 16.8582711313 10.076162192 2.2602956787
14 1 8.2334215586 10.1632580235 12.3597323601
15 1 14.1212433104 14.0433725864 9.8949234312
16 1 8.1179698625 3.736205881 1.2454267947
17 1 2.0190366391 1.4554397385 11.8212383448
18 1 9.5278737023 1.7847708789 6.9788623854
19 1 7.6631011551 16.2638918095 10.8613627308
20 1 12.033186695 9.3179096217 12.0235074807
21 1 13.8946486679 9.4905783007 6.0842448882
22 1 12.9434031141 11.3888034677 7.7575294683
23 1 0.6683466617 12.7116697881 13.374135006
24 1 7.8051124933 6.4950587928 4.3595236359
25 1 -0.4076785786 11.9228458476 7.1722336863
26 1 15.6921379161 10.9080554843 8.8412333565
27 1 3.4457857913 2.6619923662 9.2684528649
28 1 2.1446800839 0.962915187 5.5472954187
29 1 0.5861095806 9.3781128511 7.7186731935
30 1 17.508222719 7.1055849154 9.4193356299
31 1 7.0441680555 11.382051954 10.5853679517
32 1 -0.0624317716 12.1649197853 3.8403905487
33 1 15.3781576435 15.7374502559 11.3369932248
34 1 14.2044870232 0.203119021 12.0606247677
35 1 16.5271504628 10.0053082928 5.2217170842
36 1 9.4954490306 11.367040036 2.6473172625
37 1 15.3072019185 4.2523552694 3.725136744
38 1 0.5261448845 14.5534476561 4.7282816208
39 1 5.1845296113 6.3913160157 2.637347883
40 1 6.2789885067 6.7027904556 8.1421070007
41 1 5.5631855244 13.9747976138 4.5686679873
42 1 1.889943094 16.8592553894 14.0612279382
43 1 16.0687943071 5.0532020628 8.5985519871
44 1 4.6883416184 9.0084357608 8.9033068515
45 1 8.5075674771 2.1552070828 9.5244505524
46 1 10.0420561601 14.8571130376 7.8433574352
47 1 9.9622116348 1.7146110869 1.5029356347
48 1 19.0107215163 7.8189116615 2.1945763962
49 1 7.2256173668 6.2881445558 1.4214213213
50 1 1.1678265549 3.6525206879 12.8108868333
51 2 12.811389386 20.3480109967 2.7295772187
52 2 0.6639346767 7.8629865879 5.4409284588
53 2 14.7455465801 4.7897917278 1.2130069728
54 2 9.7207155325 10.9073627865 9.3886218252
55 2 1.2273987457 19.2310404784 8.4260168373
56 2 16.5225855628 17.0559551519 9.4947317835
57 2 10.6072553209 3.026687916 5.2312925073
58 2 9.3260962109 13.8063770823 1.2223482201
59 2 5.3992081597 15.2175641396 10.0929245652
60 2 13.5836564035 4.2515015528 5.7207816435
61 2 8.4944590688 4.9155699421 6.6092771766
62 2 2.8350054563 16.9610351115 1.3172422566
63 2 5.6633827173 5.2748419426 5.0281166799
64 2 9.6692458981 5.3837508856 2.4514638672
65 2 16.8622393457 12.7546501743 10.0453687017
66 2 11.3872419027 13.2784192391 9.1848157521
67 2 4.7529496099 10.8861160594 0.6267694152
68 2 4.4453586469 11.1189962478 10.7928109356
69 2 5.3227862523 15.7920439012 7.6244347647
70 2 2.0960242262 8.1495924352 11.8891865244
71 2 5.0502438272 13.3770915103 7.6644268344
72 2 13.3960290096 11.2534106355 10.7144144574
73 2 5.0507899522 6.2475431603 10.7587797813
74 2 2.5394667664 15.6973627464 6.1550348799
75 2 18.6318675889 9.1548833953 0.3424309608
76 2 11.3400447272 5.5689666974 10.378443198
77 2 13.3331779551 2.0729927276 7.0055732211
78 2 9.7840508766 12.0238865393 6.8015147961
79 2 8.2680779435 18.6704564258 -0.0441970893
80 2 4.4933549266 18.511376745 7.3517818518
81 2 1.6589347048 -0.8934907259 3.5733734949
82 2 10.5707879152 4.1356781394 8.0356360566
83 2 16.4181999438 4.1383245552 11.6636917143
84 2 1.3099095939 15.5838714627 11.9158977828
85 2 5.2480058909 12.1215930502 12.7557536496
86 2 11.3323119502 10.1199464389 4.8953444964
87 2 0.0887282166 4.4814694859 2.6330874897
88 2 10.9643634334 2.5750711185 10.1820774903
89 2 11.790592353 13.7137851197 1.6802971731
90 2 17.3723027881 1.7791065061 3.7649440938
91 2 13.1000107868 7.3723419394 4.635057672
92 2 3.1087398432 8.1454734199 5.8755929823
93 2 7.3972887512 11.9285713511 4.3837845024
94 2 12.3150900541 5.39093789 2.8550793849
95 2 7.1827791492 11.0964923763 7.5748833345
96 2 2.847736686 13.3056152048 6.2577640836
97 2 16.8259285545 7.5732746989 0.4323312195
98 2 14.07404314 11.106062071 1.0370027241
99 2 2.4712048467 5.5278177677 10.7191922355
100 2 7.0661525797 8.5925644271 9.6806914626
101 3 16.7026519448 1.2690775928 12.4616309583
102 3 2.2552693301 2.7381043917 3.0757997985
103 3 3.9047252436 9.1032735301 3.2111665146
104 3 4.6275940258 17.3915957972 3.9865420326
105 3 2.8079331615 14.1974025493 3.5840893626
106 3 1.9395455095 11.4973155012 1.7030177208
107 3 5.3367816732 8.4635253182 5.732420688
108 3 2.1240925825 14.5223972814 0.8356740957
109 3 0.5359332053 14.4249226094 8.1540313677
110 3 1.2174229806 14.8458850609 15.169840692
111 3 16.6787052464 16.6172778163 13.9540050108
112 3 13.1508629476 6.5402090568 7.8339253074
113 3 7.9375308824 14.7913449711 6.4955619999
114 3 7.6543224608 0.5934331162 12.5810893599
115 3 6.3839516088 3.3837796448 7.5165198774
116 3 15.139777096 12.8391180878 3.2727154389
117 3 4.9599591545 2.3515656054 5.2286979747
118 3 9.8565355754 8.4209020273 2.8678242126
119 3 14.7518846245 -3.1596728657 0.9887498283
120 3 2.9624259212 14.07756776 9.518916564
121 3 10.3287236667 6.4291765686 5.0209722045
122 3 5.1451716191 9.1801959346 12.5479712376
123 3 4.7892746708 14.598751892 1.8748549929
124 3 4.8401673505 11.9808508359 3.0315993276
125 3 12.7012158995 9.0325108867 9.2423743884
126 3 9.2103772659 7.4203739815 7.6593261135
127 3 7.940094851 2.9973573064 4.3475789793
128 3 10.9719158131 10.6289981409 0.5113676655
129 3 14.8859752129 9.0260488191 11.4108807621
130 3 0.6286953475 3.8880904536 9.5628794775
131 3 5.2426385396 3.6631001853 2.5338058272
132 3 12.3908490362 14.6474417504 6.9264289866
133 3 7.809554427 13.461257998 9.1241481573
134 3 11.6121296405 3.8707936193 0.2598691968
135 3 14.9236458552 12.0727974902 6.1148982468
136 3 13.9913693351 2.8115479802 12.8737571178
137 3 7.6203186071 16.4220698557 3.5598661164
138 3 9.6588339378 16.6213059282 1.2179703162
139 3 5.5968770298 8.0571570872 0.7589257248
140 3 5.5822019476 0.6230714936 10.2387611376
141 3 9.3381666294 8.892553683 14.2470236097
142 3 9.9287914302 11.9691627049 12.060746928
143 3 17.5454074863 2.4995668772 0.8967043671
144 3 4.4705663654 3.5583900623 11.4027196932
145 3 7.4233079057 13.6352752533 12.265244961
146 3 8.6003000228 9.659736101 5.8801403889
147 3 2.8959741415 5.8151822002 1.1929468989
148 3 12.5429564631 7.4397453859 0.2384877627
149 3 0.4670069511 5.824166308 7.1275192122
150 3 16.0753090493 8.3176671464 7.5864264261
151 4 0.4750235369 1.5607939366 15.2553224676
152 4 3.2924324948 2.1512774495 14.2139950998
153 4 7.3849914266 0.5658865735 6.1089812922
154 4 8.0075189093 4.0709288602 11.7575543628
155 4 14.9972698411 6.5248802102 10.6252928121
156 4 12.3797937055 12.1831152594 3.3542876622
157 4 6.7998800214 9.4945288982 2.8653936876
158 4 6.9880748568 6.8429454975 12.9850358517
159 4 8.1668219728 5.5746106346 -1.0665984873
160 4 15.8584079486 13.9316732973 13.1997687198
161 4 2.4120140625 11.0557033605 13.2808679418
162 4 1.7832716778 10.6104172082 4.9434650871
163 4 13.4161438487 11.0641466285 13.4028883281
164 4 15.5317824169 14.5883973629 7.7967750498
165 4 12.878141006 7.8211114881 13.6103423022
166 4 4.8544927366 11.3778094439 5.9584696578
167 4 4.4118189994 17.1892700668 12.9277671876
168 4 -0.3051404474 13.6069510992 1.5705727071
169 4 3.7585041629 5.9184038684 13.2635655627
170 4 13.3555988508 16.697446317 9.4217344524
171 4 -1.7973865415 6.9638901536 2.9712580572
172 4 10.0525680085 15.0569144376 11.1937566801
173 4 5.9542668371 2.439539641 13.6318682997
174 4 13.6704957324 9.3359796632 3.048072792
175 4 9.80978587 13.4475144993 4.6040458638
176 4 17.6630981185 -0.4797408233 6.9125120118
177 4 13.6609424215 3.8237389648 9.8089804899
178 4 7.3868547697 9.5176014443 0.0373865469
179 4 2.8958201695 5.7633540612 3.9774679317
180 4 15.2440374586 1.6333267296 9.4902672261
181 4 3.8694941943 5.467232427 7.3257139428
182 4 6.9767623188 16.0458789041 0.4177379247
183 4 10.1662363424 -0.1879120835 10.5166868103
184 4 17.6898260023 9.7481325907 11.8491610614
185 4 12.9334967598 14.2415326166 11.969625489
186 4 14.8359126431 0.8304265064 1.7690252847
187 4 8.2192952439 5.3325194322 9.3632695473
188 4 9.4595527659 7.6416738545 11.3649197457
189 4 7.2566730265 0.9845811971 2.2551962259
190 4 17.6943156779 16.380418491 1.9340279205
191 4 15.5651939893 16.1370229308 4.7512109823
192 4 3.4296997688 14.3908696045 12.6938251407
193 4 1.5416406297 11.150257321 9.0219752268
194 4 15.1022452751 3.0546042382 -0.825127308
195 4 14.6843014852 1.607960811 4.9387625496
196 4 2.628503984 16.8229653862 9.5626994073
197 4 15.9045859845 6.1120088641 5.4798189723
198 4 7.0704264479 12.5192463601 1.6690398267
199 4 -1.1641203043 3.1430269771 6.9198285261
200 4 12.0982041039 17.7877921867 4.8863845245
