# LAMMPS data file written by OVITO Basic 3.5.4
200 atoms
4 atom types
0.0 17.510057 xlo xhi
0.0 17.510057 ylo yhi
0.0 42.024 zlo zhi

Masses

1 183.84  # W
2 92.90638  # Nb
3 178.49  # Hf
4 91.224  # Zr

Atoms  # atomic

1 1 14.4576896806 0.0894343671 11.5459301064
2 1 4.9637847528 17.329921238 9.4223930897
3 1 12.7664958839 2.1862589652 11.5727367958
4 1 0.5144153574 6.966657389 12.0594322886
5 1 9.8142927444 3.5329826635 4.6391079449
6 1 2.4824925336 5.2954325866 4.4591330208
7 1 10.505811297 8.6207585813 0.6803849494
8 1 8.9255880118 0.3738244832 11.6160076478
9 1 14.0300053127 13.19989641 10.1224427496
10 1 9.9086645974 15.9536852141 3.1352324582
11 1 9.4373532221 8.0879412046 6.3646831447
12 1 8.0318274254 4.9765044084 9.7858237858
13 1 17.2666183546 8.6861714266 1.0617107254
14 1 4.184156644 7.3021922803 0.3583138538
15 1 11.275715896 10.8342369301 3.3105099396
16 1 10.8920101375 13.5419525718 2.0920749086
17 1 12.9078480954 0.63567758 1.6936558706
18 1 10.4749244319 1.5456113306 7.0899539285
19 1 13.1853469534 15.4109552191 6.3450344033
20 1 15.9373437783 6.0489936486 1.8395136103
21 1 13.9707841987 11.1231259051 3.8488092235
22 1 12.4109077749 14.6807602775 8.6343023093
23 1 9.8600594808 9.3656187209 12.1115340641
24 1 3.0012262212 3.3358871856 6.9765563669
25 1 6.6716836691 16.9103615365 3.3474229807
26 1 -0.0021061097 15.6835190426 3.4163104025
27 1 1.1287557072 0.6233790413 5.1346419254
28 1 3.155532723 0.6902243843 7.3720505345
29 1 14.554685941 9.5903825403 11.0104745866
30 1 15.7004293802 2.6579489079 12.0363699377
31 1 -0.5742915226 10.0711194042 11.8508575111
32 1 3.6193813121 14.9887681335 10.8926161774
33 1 13.0943317783 0.46193509 6.4231234001
34 1 12.7907812824 -0.283758003 9.2866652352
35 1 16.316892124 10.3501269288 8.3061179825
36 1 13.1645143631 12.3764563875 1.979109774
37 1 14.8834188756 2.4657476661 6.6967202318
38 1 3.3723737669 12.7933428286 6.9821220254
39 1 10.4944266081 6.271828385 2.3399665001
40 1 2.879008825 12.9312551894 9.5236217616
41 1 4.2323735626 12.8162796025 4.2279472301
42 1 7.4122387862 0.3513224841 8.9844269462
43 1 -1.252060478 1.0665648876 13.9406177378
44 1 1.798035787 16.2566538508 12.5594951957
45 1 14.0669825258 1.6464962244 3.6307819877
46 1 11.7007958181 3.3419234276 2.7472345318
47 1 1.0323843808 15.0937360224 9.866214437
48 1 -1.1112367201 15.1409851602 11.2113182088
49 1 7.9268348473 7.1172032558 1.4912313055
50 1 8.2162547272 9.5477149089 0.3176421862
51 2 5.7701186752 13.8244976532 12.8598428249
52 2 12.1462224264 7.6891743457 7.3186993855
53 2 0.8003754251 7.6632127094 3.8873809519
54 2 5.9787037272 7.72655429 8.8455876348
55 2 12.6439675091 15.2080973565 1.2596000604
56 2 18.0688685816 13.2311392545 2.3161048526
57 2 12.7305050124 16.0538980719 3.7282335425
58 2 1.8983797951 10.5755142813 6.2371054248
59 2 2.0517439057 9.3262056838 -0.184075626
60 2 14.3832964524 7.8398198447 8.4335956853
61 2 6.5803573404 11.6091527324 4.7124419261
62 2 3.6773585116 15.2093486252 13.541896127
63 2 0.7747573362 4.909630524 2.5721869217
64 2 6.6252652084 8.7183694447 4.9141117402
65 2 15.707266357 11.0459846486 1.5180674117
66 2 4.2857837891 1.6589313416 2.1795247514
67 2 3.7294434019 4.9125750152 1.7089004969
68 2 3.3866192489 2.860107769 9.9119878183
69 2 1.9065433339 10.3333545705 9.6073726519
70 2 2.3266896223 -0.2428482062 2.8212236671
71 2 4.3827481811 10.0028525948 9.6918845969
72 2 12.4259107419 11.5661907569 11.2230181106
73 2 13.6238008819 7.0724167324 11.9095982381
74 2 2.9359032026 15.6637804807 5.3467610071
75 2 15.7158783284 13.6781557759 0.8613398731
76 2 11.0179900948 6.1650282437 4.8973979549
77 2 12.3578195584 2.6162791747 8.6053931592
78 2 9.0294545181 10.8935688827 5.6632643429
79 2 7.9236544957 9.4712103181 7.6374673946
80 2 9.3671956767 2.2800916835 9.8689628066
81 2 15.059926904 3.9583588557 3.345381875
82 2 5.1210768944 6.4467750416 3.3903093132
83 2 2.2086091521 2.7141955885 4.0466233356
84 2 0.3076574798 15.9156749077 0.8907747434
85 2 0.9400589281 6.4226871566 0.2220371659
86 2 11.0583269625 12.4355580829 7.1121341957
87 2 2.4298891706 17.8876860684 9.9542971613
88 2 14.9909302754 2.6426731342 9.7360698912
89 2 15.0891298268 16.8259604353 1.8827613492
90 2 14.3211108858 9.5217263072 5.9078612527
91 2 11.5548239283 10.0749985823 5.8632284028
92 2 18.3340573442 16.5536300208 7.1777626562
93 2 3.0390777114 7.8400271638 2.3118742966
94 2 10.3156413968 10.4111640108 9.320557171
95 2 8.0332499424 7.2298760951 11.4115028947
96 2 0.9472324483 3.6977332139 10.5778349851
97 2 2.9724053678 14.772996779 2.9539270543
98 2 16.2453863043 14.8847051644 5.8271146582
99 2 5.1030348819 8.3638200322 12.1131633346
100 2 12.174342002 8.4166589055 9.995658863
101 3 1.0047160393 5.275407385 8.1425231731
102 3 6.9443572808 0.5796145799 0.9511212074
103 3 5.4990603663 5.7691621008 11.3483252738
104 3 -0.7003346912 3.4480107344 0.6218997283
105 3 7.8440679597 2.5377730092 6.7037147064
106 3 6.4961166312 14.2210246257 3.0948654646
107 3 9.0350775227 3.7028771434 1.3982695949
108 3 4.3174076524 5.1971636953 8.8446992474
109 3 5.9920756324 17.8511037071 6.782696293
110 3 16.2163884242 5.390956076 10.6671717055
111 3 11.7936372921 17.2876099363 12.620530433
112 3 12.1777699459 8.34676226 3.4449644669
113 3 8.9079369989 15.1048668155 12.2062889388
114 3 7.8610548162 5.9627154693 3.8621812603
115 3 12.4682008565 3.6480022006 5.4787730995
116 3 3.9105513222 0.7368167198 11.7890973598
117 3 4.0701805311 0.8557080808 4.7456509718
118 3 6.9449834404 10.1080004871 10.2795318235
119 3 7.1824607869 2.2604186092 3.3698402633
120 3 11.8195747644 13.4162385923 4.3862306261
121 3 11.2431596221 7.2543427227 13.0634331358
122 3 3.7418792194 6.4878103855 6.5440739352
123 3 9.3211547328 18.5699059052 1.99114965
124 3 17.0772602207 2.057942641 3.062865029
125 3 9.5910515996 8.7832988372 3.5626127561
126 3 6.1589809705 8.9579444959 2.187275658
127 3 6.2081467591 2.9935906107 9.2297638987
128 3 15.0460426545 13.7691147437 3.4081909454
129 3 15.1275848887 12.3278988983 12.4501886705
130 3 1.816061165 8.2594858323 7.520928539
131 3 6.3279311329 2.6585945037 11.995591529
132 3 10.1672333328 16.0165998995 6.8380666951
133 3 8.3848452332 15.6201265078 1.4808891991
134 3 3.6007458837 8.884866098 4.521805093
135 3 15.092697676 8.6331061482 3.0045832042
136 3 17.1787021094 0.572805444 10.9388526631
137 3 1.5432175307 1.4664536159 0.6343354704
138 3 4.6649393842 0.726515028 13.9801862755
139 3 8.2617342987 11.6065342784 2.9145682164
140 3 7.451282186 13.2604568682 10.6530020532
141 3 12.3490564752 9.6057217004 13.1976170285
142 3 9.9485525072 11.8674544394 12.7187140459
143 3 1.3815434973e-04 4.003937359 5.6851605278
144 3 6.4430977545 16.6125821803 11.4750805841
145 3 10.1851394673 11.3443302801 0.7210087097
146 3 1.4485830268 13.0704962132 12.0277554379
147 3 12.8401358294 5.4565315897 9.7205857282
148 3 9.6017835135 7.042843647 8.9357639947
149 3 1.1802653921 2.1110240286 12.9911472331
150 3 17.4125919954 4.5471586862 13.273933453
151 4 15.7267737862 0.3604767418 8.0608570934
152 4 15.2149395864 16.1339298886 13.3978676921
153 4 -0.5252819236 8.103176355 9.58310043
154 4 2.6866098945 7.3161154021 10.1886776165
155 4 15.1553033089 15.2045949949 8.7565034786
156 4 16.1592767467 18.2791263693 -0.3893548814
157 4 6.2939297541 4.2607055353 1.5469395806
158 4 13.3504396503 10.8765408776 8.3973861259
159 4 8.3828011091 9.1176980263 13.7392051106
160 4 7.6594589034 15.4126214761 8.7619241544
161 4 5.0144290906 3.7568529447 5.0667849322
162 4 16.7306621252 11.1124011703 4.835724373
163 4 10.2053585052 4.3151320454 7.7094444209
164 4 16.906042681 12.2035303915 10.0929587112
165 4 10.7021806328 4.5383815951 11.2030377998
166 4 5.2533571453 10.0176752083 7.0214770812
167 4 8.9887798814 14.0019554271 5.2292421518
168 4 4.9809889091 16.206968889 1.1985408694
169 4 7.2098391618 5.8992103447 6.969605177
170 4 10.334495876 13.8394705029 10.1350671794
171 4 15.2764860359 4.762556201 7.8940856899
172 4 8.3823820934 5.2576357277 12.3816185299
173 4 10.6471365429 2.8255676057 13.4077668655
174 4 15.9714486416 7.8222334439 13.0418071651
175 4 14.400370509 12.9276549465 6.5116482168
176 4 15.8067268077 -0.0510316603 5.3012301043
177 4 14.7251706848 6.337113757 5.0116923086
178 4 8.8003095074 12.4467212696 8.1538372946
179 4 3.553873037 15.6767148096 8.0700574078
180 4 10.9297080645 0.7992201116 4.4431176744
181 4 16.7608303775 7.8933587701 6.3319825894
182 4 4.7570646969 11.7382181368 12.0321704794
183 4 13.2355670226 14.8623204826 11.737735627
184 4 13.741935283 4.5351958153 12.717050736
185 4 13.1440296976 1.7206157704 14.3845416238
186 4 13.8625464818 2.8444387194 1.028150359
187 4 2.2777010354 9.7786272097 12.3106652083
188 4 13.2613961077 9.5184393193 1.0064294141
189 4 3.3816910433 3.5391428767 12.8605723615
190 4 5.5564049275 14.9184794378 5.753633593
191 4 8.1257816635 17.362691835 5.4655296562
192 4 0.5179485367 11.1328818085 -0.1440023801
193 4 1.2775213266 10.069976873 2.5741515437
194 4 13.0632183331 6.1209522785 2.0358678086
195 4 1.3438552008 13.33001627 4.7391086755
196 4 5.6491150761 12.9680756874 8.6556046951
197 4 0.2327179379 2.5228738768 8.1413301118
198 4 4.242369704 11.2731261586 2.0424412027
199 4 10.1834182287 17.1891274223 9.378781423
200 4 17.9965763852 12.8182801265 7.4587111666
