# LAMMPS data file written by OVITO Basic 3.5.4
200 atoms
4 atom types
0.0 17.510057 xlo xhi
0.0 17.510057 ylo yhi
0.0 42.024 zlo zhi

Masses

1 183.84  # W
2 92.90638  # Nb
3 178.49  # Hf
4 91.224  # Zr

Atoms  # atomic

1 1 13.9980906073 0.7104581306 12.218973463
2 1 4.1900041275 17.4823350778 9.8126800634
3 1 12.2731183347 2.3609405195 11.3854736494
4 1 -0.369110951 6.2616937391 12.4780442789
5 1 10.6326655314 3.9464623479 3.743100373
6 1 2.3774719394 5.9759485197 4.9641526586
7 1 11.4348718081 7.9084534899 1.7625462341
8 1 8.4093178141 1.2788692508 11.7900462617
9 1 15.4847028514 12.7535328385 9.6264221311
10 1 9.5832928933 15.7889742364 3.3186344395
11 1 9.3726316739 8.8394460607 6.4832740322
12 1 8.0954735059 3.6280198987 8.7709244345
13 1 17.143423547 10.3531442618 0.8981444923
14 1 3.3491568321 7.598577836 0.7084985851
15 1 10.5035609044 11.6959875564 3.2604181721
16 1 10.2408666245 13.911344209 1.9220407618
17 1 13.7708335309 0.4008931052 1.8684021686
18 1 10.0855982953 1.0036363692 7.5462223644
19 1 13.9848267391 16.36804688 5.8708885375
20 1 15.4372122499 6.7396736446 2.4487889088
21 1 13.3347909124 11.1753598059 4.0080167273
22 1 13.5269461028 15.3994740498 8.183407062
23 1 10.2958693907 9.4007507242 11.3789464817
24 1 2.86796173 3.3204902423 6.0775264289
25 1 6.610728184 15.9705778665 4.4544229709
26 1 0.466573329 16.1182200406 4.3829498124
27 1 1.572903556 1.2945204401 5.1932519578
28 1 3.0230087321 1.0448244008 7.5550675759
29 1 14.975604598 10.0693664724 10.9411786915
30 1 15.3797789128 3.299177176 12.0858527774
31 1 -0.3320167707 9.3403240428 12.0308467234
32 1 4.2011014763 14.8891010642 10.4858784886
33 1 12.6162982921 1.5360879608 6.4145664732
34 1 12.6679566373 0.4091552256 9.665035043
35 1 15.5811871177 10.5112989488 8.2688422742
36 1 13.0441481301 12.8858859313 2.088048169
37 1 14.9301668756 3.1446467206 6.6350840513
38 1 4.4570759217 11.7038761873 7.5835010143
39 1 9.4776361588 6.3872833972 2.1070585658
40 1 2.7247790172 12.8975656646 8.9173057932
41 1 3.9981730482 11.2948121891 5.0007828782
42 1 7.52045374 1.0979777547 9.0378218002
43 1 -1.0404887356 -0.2045479333 14.0014966459
44 1 2.4504235646 14.8391445214 13.1102205562
45 1 13.3751319825 2.5001498502 3.7674104165
46 1 11.3509539844 1.7009335908 1.8570733387
47 1 1.5440074094 14.8824978466 10.7645976257
48 1 -0.52813974 15.6442851334 12.2375493317
49 1 8.0668105932 5.1661328976 0.6346712422
50 1 9.6026119143 8.2915791402 0.1167107338
51 2 7.0663246334 12.8521638378 12.8299860336
52 2 11.6538527561 7.2309209202 6.5593887415
53 2 -0.1921616691 6.6479817058 4.7892987792
54 2 6.0084536643 7.3433029174 8.9817092542
55 2 12.2475730877 15.5837934897 2.2597876498
56 2 16.8384669935 14.0054851044 3.5221865086
57 2 12.4365852229 17.1390532119 4.4877543065
58 2 2.1105997599 10.8825492786 6.919880279
59 2 2.3190941098 9.663368135 0.7033392986
60 2 14.5944113575 8.1718565769 8.9564536706
61 2 6.6732184256 10.8574374054 4.0648348562
62 2 5.371429736 14.4390192321 12.7306564262
63 2 -0.261888292 5.0215476292 2.3307733298
64 2 7.0566091783 8.0044471244 4.4490060773
65 2 15.6660422547 11.983287844 2.3611436544
66 2 5.3599401619 1.3660339643 1.9528767122
67 2 2.11374264 5.1056957101 0.985084584
68 2 2.7710106456 2.8175364429 9.0773848747
69 2 0.7385048644 10.6681552651 9.8133247116
70 2 2.7172617746 0.3652275705 3.0141251736
71 2 3.9209818881 10.4869995423 9.7866772932
72 2 13.2319359621 12.7235615744 11.5382418156
73 2 12.7841120519 7.4696129393 13.1917252637
74 2 3.2675773015 16.3273780217 5.5850412895
75 2 15.185389264 14.929772374 1.2001361004
76 2 10.542029274 6.3227285448 4.6378812643
77 2 12.5742568203 2.8255299591 8.8042028198
78 2 8.5761434814 10.7991495775 5.5244372184
79 2 7.1947465433 9.6484770572 8.4236902082
80 2 10.061722457 1.893948525 10.0514394194
81 2 15.1818014533 4.4181664738 3.7076665766
82 2 4.095948331 6.7345761168 3.1679695745
83 2 3.304382916 3.3810293383 3.0508259935
84 2 0.8834266761 15.8207506123 1.9902944616
85 2 0.3639172929 6.5374839658 0.2351654635
86 2 9.565308664 13.1942544945 7.0959272198
87 2 0.9969620608 17.2075205115 9.387102175
88 2 15.3364777675 3.0707464005 9.2501266279
89 2 15.6335915665 16.4688584067 3.0161049242
90 2 13.9080959183 9.5283127152 6.2025041239
91 2 11.4288275115 10.464758443 6.6573517284
92 2 17.9445722163 16.8372607257 6.9789462718
93 2 0.9992168308 7.8539080864 2.3888156179
94 2 9.4029491119 11.2502524209 8.923290431
95 2 8.272707151 7.2639408604 11.0373926395
96 2 -0.5100474736 4.754092715 10.3337797646
97 2 2.3480806083 13.8669409808 3.1525274354
98 2 15.7941997627 14.6522188846 6.1588445498
99 2 5.0502066897 8.5769596251 11.2217304953
100 2 12.0214613441 7.8000560812 10.4125382038
101 3 1.9407093073 5.3192676264 7.6880420179
102 3 7.2933827955 0.5414400291 -0.327240888
103 3 5.5946092454 6.2268751659 12.1541064773
104 3 -0.4288139417 3.9185705781 -0.4171045894
105 3 7.8230620198 1.6649327385 5.5259723551
106 3 5.5640619003 12.9117141408 2.7686491217
107 3 8.7306005697 2.5179948746 1.6621176991
108 3 5.2365103693 4.7162133838 9.1765518492
109 3 5.8085338142 16.8944893703 7.1457756684
110 3 15.0346159415 7.0977448548 11.4308671337
111 3 11.4643116421 17.8682744192 12.7332816655
112 3 13.051497101 8.1868257495 3.9309031075
113 3 10.1139197619 14.4864436456 12.8467477262
114 3 7.4463749925 5.1303173017 3.3336143146
115 3 13.2265852388 4.7044604584 5.717669874
116 3 2.3021167087 -0.179141541 11.7359105246
117 3 4.8585275977 1.1838290389 4.9339180716
118 3 7.5195645793 10.0227912967 11.3462135678
119 3 7.7350503448 -0.0223204199 2.7405275014
120 3 11.1157254546 13.8556667804 4.8648739003
121 3 10.1095728902 6.8336268321 12.862329385
122 3 4.680497245 6.4504435736 6.3858611395
123 3 10.0691006698 16.7538627756 0.8354867083
124 3 18.1754876689 2.0204143864 2.0598488042
125 3 9.9933020844 8.9747459209 3.6466796669
126 3 6.5987535813 7.9272128894 1.2803527723
127 3 5.4348975641 2.4554795936 7.6784500399
128 3 13.9291013329 14.4114359895 3.9896572822
129 3 15.4421523623 12.3717390031 12.9173690582
130 3 2.6575663132 8.3635125556 8.1475046981
131 3 5.8095950987 2.1749777607 10.5222758952
132 3 11.3473971666 15.9765990498 7.1709144252
133 3 7.5268065638 15.1387540288 1.4186306431
134 3 2.1882339245 8.5323077541 4.9349842205
135 3 15.8278565437 9.2387522295 3.2483110577
136 3 16.0332165934 0.7906018366 10.5303508068
137 3 3.2130797004 1.9032141468 0.448900368
138 3 6.2277837627 3.3171804913 13.305514489
139 3 7.8410565801 11.3406458139 1.5974541096
140 3 8.4801001183 14.2331189972 10.6267492402
141 3 12.8872825334 10.4700146119 13.0306048274
142 3 9.5564158313 11.633222582 12.2847347194
143 3 0.2810519988 3.898288504 5.2283516633
144 3 6.3606460479 16.7426221945 11.5532746409
145 3 11.2299148399 10.5742152101 0.6718091117
146 3 3.8688248564 12.399011092 12.0096363701
147 3 13.5757828775 5.2899629701 8.5482333751
148 3 10.029996335 7.9323916639 8.7735374868
149 3 0.4921747834 2.332977834 11.5325068003
150 3 14.5609872852 5.712895984 14.0749096322
151 4 15.7467650183 0.4684439284 7.5002661787
152 4 14.7760531595 15.9379499765 14.2953801434
153 4 -0.033393955 7.8453537232 9.4502268456
154 4 3.2701763192 6.2443761176 10.3785424687
155 4 16.0387175529 15.5092936253 9.001752601
156 4 16.0527063374 17.9363333842 0.7183498512
157 4 5.6315531893 4.78063551 1.4667472826
158 4 12.3618178048 10.4699879967 9.579183373
159 4 7.2316477627 8.3683050582 13.4456985684
160 4 6.1930704249 14.5019983546 8.4388520472
161 4 5.0814096113 4.1899967733 4.8470590862
162 4 16.0557255966 11.9364246278 5.6940082608
163 4 10.4046191017 3.5979470762 7.2973318625
164 4 17.8432493959 12.493847837 11.7210462156
165 4 10.5731576027 4.7935031256 10.3334578608
166 4 5.1469693659 9.4118694353 6.4939077852
167 4 8.1853036003 13.4073818304 3.9346281149
168 4 4.4102857225 15.6285751103 2.6281107799
169 4 7.9376014312 6.017576579 6.7832766444
170 4 11.753047229 13.8938189183 10.0310262614
171 4 16.5352980417 5.8657016989 7.6650540494
172 4 7.6080117294 4.2776627998 11.3062676546
173 4 10.2498804516 3.435731982 13.0313864738
174 4 15.3508584271 8.8551932052 13.6849113634
175 4 13.4934222232 12.8176014367 6.7568439686
176 4 16.0991135917 1.2253441583 4.6354413509
177 4 14.8960091319 6.8567283756 5.5935490483
178 4 7.2436085324 12.3454005504 6.9161334192
179 4 2.6552721455 15.4881174876 7.8630286932
180 4 10.0489669058 1.0365344394 4.0130642299
181 4 17.1348662071 8.7728360529 6.6189106946
182 4 5.4123978412 10.280893214 13.3308015905
183 4 14.4240078603 15.323659005 11.2580266241
184 4 12.8531181359 5.1646567998 11.8531410953
185 4 13.4436057608 2.8281897367 14.2269797798
186 4 15.1120265027 2.9360886341 1.3128205147
187 4 1.8918229792 8.2389463603 11.5460578594
188 4 13.7681632472 9.9834334163 1.2581939374
189 4 3.1973087423 3.2251348494 11.6965331962
190 4 4.9837320346 14.0085633724 5.5511405287
191 4 8.8135486864 16.1152709968 6.0432672034
192 4 0.5835261515 12.6164325942 1.1305687303
193 4 1.0913783893 10.7559270524 3.3284302339
194 4 12.4295684177 4.9892359708 2.1023447338
195 4 1.8631985886 13.4342630948 5.7542038586
196 4 6.0582104173 12.445127154 10.2050589919
197 4 0.3985488588 2.3309977967 8.0298139646
198 4 4.4271277708 9.6425306419 2.5794083258
199 4 9.3941904062 16.8150147235 9.412600237
200 4 17.7470789099 13.6668838518 8.2984271702
