# LAMMPS data file written by OVITO Basic 3.5.4
200 atoms
4 atom types
0.0 17.670372 xlo xhi
0.0 17.670372 ylo yhi
0.0 42.408 zlo zhi

Masses

1 183.84  # W
2 92.90638  # Nb
3 178.49  # Hf
4 91.224  # Zr

Atoms  # atomic

1 1 17.9884318046 16.8632374705 8.2193616504
2 1 1.9985855138 9.626062197 6.9284892715
3 1 -0.6837614059 5.9314786195 7.916136817
4 1 15.7525971615 14.796358266 12.8741871377
5 1 10.4918916944 11.3634559343 3.2381820065
6 1 11.3057160501 6.1307548261 5.9639337302
7 1 -0.9038731015 7.2875126855 5.8282815643
8 1 4.8570010803 15.65824515 11.6711362138
9 1 20.0534545597 0.2598359288 12.1476409834
10 1 4.6155732615 10.7413180071 9.662307845
11 1 7.3133480063 10.4818863763 10.2066806815
12 1 13.0068250921 11.9821886042 1.5264199814
13 1 6.5784043679 17.2786626151 2.8634615258
14 1 7.5579865317 6.033015581 11.9148566861
15 1 9.6474942378 15.0630676161 13.3797740414
16 1 13.0924673773 5.2784507615 10.0005714403
17 1 4.9788298135 3.1286704768 2.1376965269
18 1 11.7569187503 4.5787932657 8.0565806628
19 1 16.7414292349 8.8399301415 3.4146310925
20 1 11.5421802614 3.3825751685 11.057896602
21 1 12.9461833794 2.6015180438 6.1370919554
22 1 8.456387119 9.8863948399 1.9835769492
23 1 0.8458837116 6.2495545041 13.5672089198
24 1 0.6422151806 17.6765834892 2.1396027665
25 1 6.8488605437 4.4314274876 6.2085876026
26 1 16.8217126264 7.9050598501 14.4657144252
27 1 2.3503989095 1.4198774734 0.9919417795
28 1 14.7424123873 1.5387522505 11.0650436222
29 1 11.3367814476 7.3455642751 8.7772965653
30 1 5.1656448737 8.9033356771 8.1760414543
31 1 16.1006607276 16.5646382233 6.1045972495
32 1 18.873615307 14.7307328016 12.795458382
33 1 10.0074080854 9.9721104571 13.439206733
34 1 17.9156106112 17.1887585896 10.8645971213
35 1 17.445928236 19.5328721478 7.4123637034
36 1 11.6165737644 10.8854205975 11.9570382274
37 1 9.731491588 4.3864708806 3.1137628716
38 1 2.278527322 6.3059645162 3.1659391303
39 1 4.439261117 6.1284550272 1.3337167572
40 1 6.5195678604 7.9571897447 2.9268402818
41 1 16.9660475822 14.1063977402 10.5053000062
42 1 9.6392633785 10.861266966 9.2251907777
43 1 11.7284334038 1.941715542 4.2200802994
44 1 0.1661242916 6.5484629828 9.8872483586
45 1 15.3888295824 9.8513603235 13.5292575766
46 1 8.5045765205 13.1823420699 3.1289847991
47 1 16.9278627919 1.6283781443 9.7785418118
48 1 5.8506290693 16.4570479225 6.0647931007
49 1 6.7770856131 14.2407448717 6.833842249
50 1 6.3852035886 0.0849142658 11.9927720563
51 2 11.5841931611 3.1724343337 1.9059304457
52 2 12.6506269703 7.3115295483 4.0831677677
53 2 4.0720110609 18.3418235179 2.8235174306
54 2 5.053114467 9.791044099 4.2653351484
55 2 -0.1535387458 8.7056222382 12.5191719583
56 2 0.5337722844 15.0791776943 2.228535311
57 2 15.0383195533 5.6460535182 3.412964034
58 2 18.5782004376 4.7446549756 11.6435180038
59 2 12.7922254923 17.3419566506 6.2622120946
60 2 17.9790765795 12.3582865689 12.0025708488
61 2 10.7737037347 11.3692815026 6.3215192585
62 2 14.808603127 4.0406514518 0.6477194362
63 2 2.5094594699 10.4962617541 11.8906417181
64 2 4.6754238717 5.2097545398 4.6117979064
65 2 2.6456710024 2.9869952653 6.267971525
66 2 -0.3244633707 13.9692724729 7.7993290699
67 2 9.4318451946 8.8500837139 6.2407515262
68 2 4.3824051047 18.4552162388 10.3668760534
69 2 9.7539124628 6.9511458454 4.1235953141
70 2 4.8291280122 3.909647908 8.3835692431
71 2 4.2296078077 8.5881487216 2.2319423698
72 2 13.7403349565 8.0064870786 12.5215959996
73 2 13.1046380227 11.8895811885 4.0367081074
74 2 -0.2118004362 2.4193776805 0.9216611215
75 2 10.1543642643 16.9077399489 12.4137397332
76 2 6.2381795555 8.255441769 0.5086173794
77 2 -0.0999073998 6.221021801 3.2223383777
78 2 8.4254971883 18.5297986381 9.7896153888
79 2 3.7979731007 6.7636897041 9.7736199394
80 2 13.2177932538 3.834445102 12.4260363569
81 2 2.2831737463 2.0817659627 9.2492132134
82 2 6.3251011756 5.0384750939 0.1525928897
83 2 4.2145678473 12.2370116252 7.6548233858
84 2 15.9424693729 12.8340236971 14.0517275292
85 2 17.9051806741 10.3233463851 5.4227079914
86 2 5.7990234547 13.3901974189 10.2018236933
87 2 14.5887460614 11.2878313365 6.7100736528
88 2 2.1864615032 6.4180397341 0.585065857
89 2 14.1160427594 1.3808593483 2.0869608679
90 2 1.3043690789 4.253329752 1.9828352333
91 2 0.0620046285 2.2774542003 12.0860900122
92 2 12.2577235983 8.8703111655 6.5474491507
93 2 8.179451041 8.407181671 12.6121578595
94 2 13.9381763289 14.792930744 4.2229873678
95 2 4.548761585 15.5685775541 3.8436244834
96 2 16.1325992182 3.5256663069 2.87250588
97 2 19.7597690896 15.816110133 9.2303522554
98 2 16.2173291821 -1.4134313217 3.1966543966
99 2 4.8132066536 6.0282726764 12.5057434651
100 2 11.4919877464 14.057480496 1.7350342632
101 3 20.0590027031 10.4328355441 13.950397854
102 3 8.0777022118 3.2827198963 0.8504211946
103 3 -0.5903946943 5.8991771795 0.6624273787
104 3 15.0193286744 1.0101678106 4.9111720934
105 3 6.3667898241 3.5061606901 11.4225430622
106 3 0.926255985 16.2517102482 4.9203856555
107 3 5.7095606584 16.7805590368 8.6124532766
108 3 15.2558552621 12.6811581924 8.8820294825
109 3 2.0621953189 8.6925981138 4.2538311302
110 3 0.8366967085 5.0989727931 5.539020413
111 3 4.057388298 13.0559174497 13.207287983
112 3 9.3528992736 5.9964061043 10.1413723615
113 3 6.1831568444 7.1884375602 6.0904236478
114 3 3.7215953916 3.9956623312 11.4186160814
115 3 14.5872705854 8.1340491406 1.7504105558
116 3 2.1905735755 4.8328361398 8.6339265674
117 3 7.9499219207 10.0573498578 4.443770201
118 3 1.9569747917 9.2031412806 9.6296634389
119 3 6.4432057012 5.9320988496 9.0442180303
120 3 14.1333452342 14.9807819948 7.4324905402
121 3 16.9439559065 9.4787331733 7.9101348127
122 3 11.1108941908 8.2762470417 0.9198117086
123 3 6.3623971463 14.7909081932 1.7669810578
124 3 2.7837121251 14.8534227887 6.7971071671
125 3 9.1173758329 12.9519322582 5.8664695442
126 3 7.8891966271 8.1658337223 8.9918030146
127 3 -1.4382555438 11.2446267468 2.9770645003
128 3 10.229735469 8.6413386618 10.9713783449
129 3 8.6529639995 11.6040490047 12.1765941972
130 3 2.9942986067 18.1158281185 7.3571718118
131 3 9.9595132489 3.8656417903 6.1075293386
132 3 9.0936459369 6.3654007561 7.1650092895
133 3 8.7256169709 1.7370373259 3.5339154667
134 3 12.7605944662 15.2700694861 12.6077983171
135 3 13.2533559376 16.6320478652 0.5372898523
136 3 13.0264824975 4.2159526743 3.8595393576
137 3 5.4714499219 8.046140807 11.4998011085
138 3 11.385442118 12.4581501461 14.1259232938
139 3 5.1775324398 12.622557231 4.643416463
140 3 1.391808971 7.2718388888 7.5867878074
141 3 8.7538817912 12.2678810582 0.7188601284
142 3 12.475593984 0.3978185627 12.2222336868
143 3 1.5259058901 3.399133544 14.1039177826
144 3 7.3648067801 -2.1292757618 13.8851497534
145 3 8.0605840389 12.6184895113 8.6062566197
146 3 0.236550266 19.144952881 4.87649592
147 3 1.1483275016 8.7730453096 1.2759536686
148 3 12.8539302547 17.1733153913 3.5075465964
149 3 8.1287780687 15.2151969731 10.6565400806
150 3 15.6376298338 3.9371924839 6.3167199451
151 4 15.5099424888 0.294160273 13.2399328133
152 4 3.0205993651 13.5254879715 10.0510305991
153 4 4.3567908403 0.7097958718 14.1845884006
154 4 5.0679558125 3.2388454229 14.0622001848
155 4 12.6099711551 9.5404301606 14.3902926454
156 4 12.618379955 6.0714633065 0.9784547633
157 4 15.7427892216 10.4488889004 10.6223066467
158 4 11.0499204518 13.5389678148 10.3076783021
159 4 6.8745898423 13.0155883597 13.4918622022
160 4 8.1656732753 18.5561220146 0.5083748057
161 4 5.8728718268 11.0268551385 2.1308544202
162 4 14.8319856235 1.0510448589 7.9847152178
163 4 8.5746651676 6.6708205902 0.728277673
164 4 16.4559106573 17.3403339804 0.4097138659
165 4 15.4146998906 7.5040330547 9.6918263575
166 4 13.1409946364 13.6803585333 -0.4849660138
167 4 14.0897268045 12.3327479336 11.8791372758
168 4 7.6897085527 1.5798971816 7.2855417312
169 4 13.2515198093 9.2950793426 9.5978146068
170 4 11.1218006978 14.5013802082 4.910072454
171 4 3.319518446 3.9813952729 -0.0676488175
172 4 12.3698498836 12.4938379362 8.0514221537
173 4 11.1510808577 1.8550285844 8.2335543358
174 4 -1.3697519292 12.9281458171 5.1402490834
175 4 10.3820874727 -0.3125282713 5.700287435
176 4 3.0398098868 2.8675234063 3.7791223394
177 4 14.8285054437 4.111742539 9.1346098342
178 4 2.4241112197 11.8136519534 5.0664718858
179 4 2.7360623767 7.7975571943 12.5646621718
180 4 3.914707289 6.4373076844 6.5403250308
181 4 9.4798925264 16.0353323021 2.156505323
182 4 8.3799101023 16.0783944686 7.6615369963
183 4 5.3302685973 0.311601637 0.338007875
184 4 11.1893822725 6.0730306685 11.9845839197
185 4 5.5863608811 10.8192397533 12.488005895
186 4 15.1136580679 14.3597756782 1.6831395936
187 4 6.9391762888 10.7988486741 7.0569520092
188 4 7.6768786257 15.6069955934 4.7093939813
189 4 8.9777765367 2.6584569301 12.2473375265
190 4 5.9014508263 1.2254963133 5.2925900695
191 4 14.613478751 8.8214426915 5.0912508802
192 4 8.9296148776 3.6942147968 9.0512276486
193 4 13.7499520565 6.031705853 7.0384129279
194 4 6.8610417913 4.7312062321 3.3561703922
195 4 1.7865334515 12.0147165784 8.5119810912
196 4 15.1289501845 16.3050249412 10.7194574376
197 4 15.8414324829 5.4343158118 12.4901971164
198 4 11.3227785613 16.2991983127 8.8274737109
199 4 3.3610789843 -2.1168156757 14.2123541904
200 4 1.1601495106 14.221127048 15.1637339902
