# LAMMPS data file written by OVITO Basic 3.5.4
200 atoms
4 atom types
0.0 17.670372 xlo xhi
0.0 17.670372 ylo yhi
0.0 42.408 zlo zhi

Masses

1 183.84  # W
2 92.90638  # Nb
3 178.49  # Hf
4 91.224  # Zr

Atoms  # atomic

1 1 18.5987979067 18.84997606 8.5419991699
2 1 3.2199621565 9.3527147949 7.121935908
3 1 -0.082322199 5.8939255449 6.877299847
4 1 17.1587885784 14.7581713552 12.9702035146
5 1 10.0591806851 12.7891759395 3.971768737
6 1 10.3658657178 5.4381527564 4.9873517042
7 1 -1.6903986762 7.3361646974 5.3191654668
8 1 4.1082529939 15.3073606857 12.5252418154
9 1 18.863270011 -0.606833088 13.3751184912
10 1 4.4622926798 9.9589161671 10.5974135748
11 1 7.1711527558 10.3748291907 10.4523201158
12 1 12.6120147336 11.5128847283 2.5016568257
13 1 4.4651121644 17.9560529683 2.3200606807
14 1 7.4424601134 6.3150451436 9.6726185021
15 1 9.8778969813 15.3387759566 12.520808059
16 1 12.3575712722 4.6225898128 10.4354218001
17 1 3.7802776368 2.5044285383 1.1465630438
18 1 11.4219245447 4.6150403231 7.5735035014
19 1 16.4513617735 9.4725667436 2.2923330581
20 1 14.186499657 2.5868200051 12.004840949
21 1 12.8885408589 3.0803718723 6.1055399794
22 1 7.0763045602 11.3171422427 1.16277435
23 1 -0.664851634 6.1457256954 13.2714801245
24 1 -0.4033161688 17.1428946089 3.3113179951
25 1 6.6359898131 3.1662113588 6.6785064098
26 1 15.6735279014 8.3435944839 14.0911042054
27 1 2.4495975507 0.7392115633 0.4782965076
28 1 16.3757004212 2.1736340501 10.3394961763
29 1 13.5409606794 6.8110943644 9.0947637014
30 1 5.6355963687 8.6730087394 8.5153720349
31 1 15.8820647965 17.1988160352 5.6939873026
32 1 19.8753144152 13.9773536641 13.2188259276
33 1 10.4087757423 8.4447707931 13.6104065568
34 1 17.7763986496 17.8809577748 11.2020799853
35 1 17.4737555378 21.5527501065 8.5626930017
36 1 11.9381678201 11.1680769283 11.277268097
37 1 9.5837920166 4.4635115821 2.855070679
38 1 2.4183505018 5.0626418015 2.485230511
39 1 4.988766217 5.7333753722 2.1986669326
40 1 6.0886643534 8.4712351791 3.9562614036
41 1 17.9999433451 14.7052934738 10.3126268916
42 1 10.5812410469 11.9592217149 9.1669442378
43 1 11.7565731178 1.6759170995 4.329888606
44 1 0.1806357312 6.4379576007 10.3360216889
45 1 14.7025148078 10.1670484107 12.4944866856
46 1 7.6627835001 13.3439019277 2.9475188467
47 1 19.1907765731 2.4254557584 10.7837301542
48 1 5.3016134386 16.6850506761 7.522161408
49 1 5.4849020227 14.1042863075 7.0828484544
50 1 7.9385146353 -0.5125496375 11.5979480633
51 2 10.7853336668 2.1859305085 1.6210224756
52 2 10.8723355104 8.3819391912 4.368251731
53 2 4.7116725194 17.5815808546 -0.2754140911
54 2 5.4553211131 10.4869558294 5.841097686
55 2 -0.7352643556 9.562912705 12.2017654656
56 2 2.5894392844 16.090261537 1.744638403
57 2 16.1612261044 6.3161389396 2.8119824546
58 2 19.3109971257 4.4332842903 12.6625313542
59 2 13.1300374154 17.8214118018 6.3993536294
60 2 17.1077871139 12.576614087 11.8973667787
61 2 9.5340688267 10.3927002981 6.076965469
62 2 15.2399809067 3.4050501147 0.2256338844
63 2 4.1338024081 11.5926360649 12.7484987314
64 2 4.1781364879 3.6071012765 5.2872793157
65 2 2.9069921259 1.3511930909 6.1028500399
66 2 -0.4817653756 16.765471013 8.8443974714
67 2 10.8396628158 7.6093357492 7.101543173
68 2 4.9889434509 17.9973194716 12.9202621574
69 2 8.7701063733 7.754546272 4.4026645507
70 2 5.7276112969 0.9216821859 10.3870826172
71 2 3.8457642122 7.8197950041 3.4507406563
72 2 11.0206084853 6.2112488484 13.3753793004
73 2 13.8249468823 12.9469193504 5.3902349136
74 2 -1.2380548234 1.077897463 1.268932176
75 2 9.6392335156 17.9833054529 13.1913366379
76 2 5.0472664574 7.691479124 0.227264472
77 2 0.4007967271 4.5645555402 4.0351597913
78 2 10.4539565864 17.3072606985 9.8799308582
79 2 2.1620368082 7.3961833528 8.3811239978
80 2 15.7640078043 4.5045043713 10.4326360186
81 2 3.039359469 3.0801596511 8.1224436794
82 2 5.1260204781 5.2460233318 -0.0772279366
83 2 3.8750858973 12.2038641277 8.2487368238
84 2 15.5300117905 11.6161146881 14.3810795074
85 2 18.0021846551 9.971370422 4.4934100373
86 2 5.4933092323 12.721340265 10.594244849
87 2 16.4030723576 13.5973505472 5.712400008
88 2 2.5032631773 6.7368551237 0.194721845
89 2 13.4226630166 1.3359999283 0.9912454402
90 2 0.4515271282 3.4070322003 1.4518760472
91 2 -0.2496662763 2.2513301456 13.1624542454
92 2 11.988706851 9.688598527 8.1987717182
93 2 8.2234258822 7.8322876037 12.250308631
94 2 14.7063650052 15.5651763609 4.4197363152
95 2 4.1040234137 16.230915401 5.2498351721
96 2 15.7276296327 3.4464419008 2.3619169526
97 2 20.4996826968 17.8713376709 11.1348823889
98 2 14.5187196141 -0.919824323 1.7071035062
99 2 6.5438245101 5.3086541983 12.1416661202
100 2 12.5935931941 14.3002159223 2.7986226624
101 3 21.8009822554 9.879268909 14.5139810904
102 3 6.5218174754 2.8512931697 1.9478066494
103 3 0.3615510076 5.993720031 0.2608935919
104 3 14.5497461368 1.010870738 4.0600795802
105 3 6.9217034716 3.2752582284 9.6775416468
106 3 1.0945148575 16.652877523 5.7008404354
107 3 5.7427148706 15.3772987812 9.5441867222
108 3 17.1573357205 12.4409489225 8.6175396922
109 3 1.8072305816 7.5109863461 4.6673426326
110 3 2.3234022919 4.8824685039 6.7345617283
111 3 5.3238286302 13.0396175918 14.204681311
112 3 10.5616557367 5.8873940453 9.7247298766
113 3 7.4987927292 8.3827804776 6.6139796693
114 3 3.8788975733 3.1051388424 11.2907725006
115 3 13.6011450829 9.8961034724 0.9260414438
116 3 3.0580389959 5.7115390333 10.3625992066
117 3 7.2952000041 10.8995319799 3.7877807808
118 3 1.7239796278 9.8652494126 9.585459036
119 3 5.1665798131 4.6723255487 8.2939098254
120 3 14.6335819798 15.0130307772 7.3146700901
121 3 15.087637915 10.5221317088 7.1455346878
122 3 9.8275521478 10.9024251499 1.299651683
123 3 5.7665795915 15.3259221746 2.1630946781
124 3 1.4904163615 14.1659131435 7.3751833375
125 3 7.5281391529 13.4051985045 5.6886205702
126 3 8.9274124425 8.4547139114 9.1376407339
127 3 -2.303386178 11.2399949889 3.7821392446
128 3 11.8279524088 8.3675127461 10.6781579827
129 3 9.3959584361 9.8731434746 11.3852889065
130 3 2.1720221587 16.3725982107 8.5598792309
131 3 9.3423799244 2.9991155501 5.7389533531
132 3 8.070851762 5.2411517869 7.3411869643
133 3 9.3285802474 1.3481210967 3.5313527513
134 3 12.1576619362 14.9887023857 13.6765401365
135 3 12.5745438263 15.9576885109 0.04993542
136 3 12.9999239283 3.5361494318 2.8508688943
137 3 4.842586651 6.9837731271 10.6615094501
138 3 10.3147308419 12.3176010675 13.6396197317
139 3 4.8328257143 13.5060737105 4.376839775
140 3 0.0294158683 8.9680371578 7.2516496817
141 3 9.699420923 14.0478033168 0.8156110118
142 3 13.3124149152 -0.1021960664 10.8599250319
143 3 2.9393061119 1.7039953206 13.74745437
144 3 7.239457402 -2.1286224882 14.1349447476
145 3 8.3206194662 13.5905446267 8.6560474284
146 3 0.2652958971 19.8899702217 5.7085506338
147 3 1.5712950678 9.5010402509 1.8394168903
148 3 11.9158649833 17.2558692488 2.6290317982
149 3 7.3375007542 13.8661524228 12.2688239638
150 3 15.3621057953 4.6686633641 5.2322803805
151 4 15.1829200949 0.7674392758 12.9483489758
152 4 2.5702750591 13.6859353027 10.2389379026
153 4 6.784834778 2.2739690728 12.6653234969
154 4 3.3303148666 6.5740438502 14.0056635355
155 4 12.6591481538 9.5536573176 14.0304730637
156 4 10.7575895924 6.5783980066 2.0107931314
157 4 15.5819665717 9.5519049468 9.6803664437
158 4 11.4057808928 13.9374094348 10.8306232243
159 4 6.9206236352 10.7443216169 13.4492599735
160 4 7.054036004 17.9708934302 1.442608627
161 4 4.7889454096 11.3767138377 2.0634770138
162 4 15.825544698 1.5031538725 7.3074717562
163 4 7.8362178478 8.2470423344 1.4115969288
164 4 18.2048772514 16.1254425409 0.8954071769
165 4 15.8076191659 6.7687529725 8.1967747255
166 4 11.7186648687 12.7874283398 0.2889193428
167 4 13.9788243691 12.9909007296 12.287033959
168 4 7.8195843733 0.913287699 8.1526869446
169 4 13.585335401 12.2044850646 8.8537624301
170 4 10.732409489 15.296449231 5.1455789208
171 4 2.1760845772 3.4574369364 -1.1314886962
172 4 11.063388986 12.753589224 6.895217651
173 4 12.7076148035 1.8762279064 8.7361934594
174 4 1.3637037142 13.6166912995 3.2987304526
175 4 10.2845137989 -0.0381179964 6.1710183554
176 4 2.4686806689 1.7984634265 3.5077158043
177 4 14.7249058197 3.8621165511 8.137999782
178 4 3.0794369329 10.8012951371 4.1105188073
179 4 1.8979806644 7.8573424242 12.0940974907
180 4 4.9544390456 6.7733144023 6.1944114564
181 4 9.2370715755 16.293008028 2.6871498418
182 4 8.1911958305 16.0066688383 7.5891104935
183 4 4.3684504585 2.578872932 -1.5172925076
184 4 14.4531759635 5.4356569931 13.7079275695
185 4 5.9830137293 7.8582363683 13.693495279
186 4 15.6845817793 13.4861968392 1.0497052922
187 4 6.9934427081 11.1198194957 7.819425797
188 4 6.9389548791 16.4132285806 4.7564592278
189 4 11.4603328653 2.3100858996 11.7713480141
190 4 6.1554673715 1.516617459 4.4104239425
191 4 14.1381264835 7.7456199068 3.5168072314
192 4 9.600672523 3.2106185939 8.8727951405
193 4 13.008040637 6.2619695308 6.0969243701
194 4 7.0201474112 5.2237197882 3.9061631369
195 4 1.7674360203 11.5758403763 6.5536865194
196 4 15.2157196627 15.5068795065 10.7900574278
197 4 14.5668204871 7.1893875194 11.5525757441
198 4 11.3404943461 15.4549431026 8.0305404545
199 4 3.1382054095 -1.5750738769 15.2569166645
200 4 0.6009995681 11.711662277 14.1747611947
