# LAMMPS data file written by OVITO Basic 3.5.4
200 atoms
4 atom types
0.0 17.620497 xlo xhi
0.0 17.620497 ylo yhi
0.0 42.27 zlo zhi

Masses

1 183.84  # W
2 92.90638  # Nb
3 178.49  # Hf
4 91.224  # Zr

Atoms  # atomic

1 1 3.7988031244 1.3902043518 3.0681772494
2 1 3.6096361644 3.5855855957 4.473091713
3 1 6.5976048076 17.381510023 2.6811442527
4 1 5.1828265583 5.2115675272 9.8908887597
5 1 5.4910488732 3.079433119 1.7372644521
6 1 8.9486095762 5.3253550582 12.0908592306
7 1 14.212152812 5.352782419 13.1852832135
8 1 8.8800482224 10.1741702947 1.2152350245
9 1 16.7810547609 8.8469378989 10.4770430454
10 1 7.7044384412 15.9181046643 12.1106035476
11 1 4.0966866127 12.8655158438 7.8732562743
12 1 16.1170998089 2.6299326547 10.0174903686
13 1 16.429087624 13.3216498966 12.6691732767
14 1 8.4915007575 8.4520088186 10.9572116466
15 1 16.3850374387 9.8526882034 1.6486259529
16 1 8.4314250826 2.9681031187 6.6436380369
17 1 1.0653481116 12.7121093301 2.5946099541
18 1 10.16800594 0.9485162872 5.8574908548
19 1 6.4711359811 1.8646085694 3.8144477589
20 1 16.5577274719 11.7234930206 4.9554274971
21 1 11.8969893678 3.8163547253 6.9497294787
22 1 16.8957115111 11.4805216968 10.1940407457
23 1 4.4746822191 16.851577276 1.2435212631
24 1 5.1332278547 3.3784434381 12.8505580737
25 1 8.0595238774 14.0750225275 10.3251115617
26 1 14.5464145211 3.1030387703 2.4870759195
27 1 1.8118059308 14.3874186095 7.1142138843
28 1 15.5437612582 8.1880363292 8.2290568134
29 1 17.5439378788 11.9222148713 0.5452174815
30 1 0.4237581516 2.6183027743 11.1509709861
31 1 13.6528875761 9.4566580183 1.6954323693
32 1 16.9957217517 1.0709464959 7.3307491452
33 1 8.9238566544 13.512192665 5.2188291978
34 1 6.0024138452 6.5163450664 1.4181238386
35 1 1.7658352876 12.3421645287 8.7637397655
36 1 1.1219853227 10.0102263713 4.0022888757
37 1 8.7747097196 3.6824533969 1.7059986012
38 1 16.4889564342 1.6646460595 2.3903545509
39 1 6.7037878608 9.9290332356 12.0242827125
40 1 6.036263701 3.5466041226 5.9528688828
41 1 8.2952995189 11.0443113161 13.529819643
42 1 1.5674524552 2.2639891158 8.0110716915
43 1 16.096420746 3.619244269 0.4776619902
44 1 2.0683318219 17.067284581 6.0496223766
45 1 4.4231732775 17.5396437637 9.5479615491
46 1 10.74036902 10.7762304317 4.1516084961
47 1 17.3248971282 17.4772598037 4.60882491
48 1 12.4314645027 1.7561091256 4.4886694761
49 1 13.3846560364 13.5496342829 12.1414974225
50 1 14.4679428711 0.3629299053 2.9501949162
51 2 11.6708831503 13.563406111 4.2508128045
52 2 14.8177992487 14.0062222397 7.1531043978
53 2 4.6574633348 6.5539449164 3.828736287
54 2 13.318367198 3.8099579563 9.7099883769
55 2 -0.4964516882 5.9565503346 9.4630275927
56 2 14.794199236 13.5212184122 9.6434253852
57 2 4.0083103052 15.3504127781 7.0266870861
58 2 17.0843088004 12.621947009 7.3956069651
59 2 2.4446148923 7.2207727142 13.7649828702
60 2 7.2244839433 6.1202761162 8.2419191517
61 2 9.9069945752 6.9470821683 8.013538146
62 2 12.2404491525 0.8382865107 1.7533431147
63 2 0.8526354101 0.5198295064 1.2987618126
64 2 3.9336066223 9.0879753731 12.7098395529
65 2 14.3434292149 10.6377705045 10.8091132065
66 2 6.627965805 12.6882902946 0.4699384158
67 2 1.523459889 6.5862792332 7.2681400893
68 2 7.659547582 5.2746371007 0.0028456164
69 2 8.7066896674 7.501898405 1.0358132463
70 2 1.8995487815 5.538372242 4.9522471023
71 2 3.0344102823 8.683566994 4.90141785
72 2 6.3765112691 10.1521740997 0.1999366773
73 2 1.0116404843 13.0771295549 11.2899285387
74 2 1.403675398 1.9070091237 4.8724814988
75 2 12.5973630678 12.6681394943 6.5419300764
76 2 12.2073028832 5.7218676926 8.9011041618
77 2 14.488650303 17.4272278121 5.7417754617
78 2 6.9740387095 11.3869445233 2.5545422211
79 2 13.1284984136 0.7685022944 10.5677523519
80 2 12.9580636278 13.8898901327 2.0450741694
81 2 10.7963429956 9.0244792073 2.3229820887
82 2 9.7927115557 6.6457764272 3.3889841463
83 2 12.2947571101 15.2626605886 6.6313446528
84 2 3.958790189 11.5581748746 10.4267231466
85 2 10.6081034023 14.713619646 11.1162191283
86 2 9.2334033258 12.8770341865 8.0526459273
87 2 17.5509407929 3.8917198816 6.8700209397
88 2 10.1589005482 5.6202115213 0.7189421091
89 2 17.2960051517 5.0538721844 12.6736179672
90 2 15.8512382261 0.5104999819 11.5567841211
91 2 13.8914021475 11.9958970939 4.4991059391
92 2 3.2076856685 1.9611281896 0.1771032687
93 2 1.8508027337 11.7327621068 5.9156006919
94 2 11.867897751 11.6241142985 11.6282178849
95 2 14.8982403416 14.5357067213 14.3553108957
96 2 0.842458692 7.4987052185 11.865197454
97 2 12.9052391398 15.050554737 9.0731198133
98 2 17.010819346 15.786384401 6.7573912566
99 2 7.2912097699 17.7004144117 14.0676677727
100 2 6.0856305188 2.39458572 8.534790651
101 3 2.5854643351 15.3169673127 9.4697379552
102 3 5.3397436037 14.2386290183 9.5779005447
103 3 14.9374961658 0.8663912034 0.2196404151
104 3 12.2115386745 16.2203529258 3.650022954
105 3 5.1218335604 16.0937195238 4.6216251114
106 3 1.8533850176 9.6367571181 0.6982678521
107 3 1.4663863944 3.48199998 2.5161517617
108 3 3.4985318826 10.0723923658 8.3175596259
109 3 0.6869271463 7.3418574217 2.6896308006
110 3 6.0290133951 7.918084148 9.9307227396
111 3 15.2287307357 -0.5228494834 8.5532296704
112 3 16.666614919 6.5025621375 5.713365372
113 3 7.284519972 1.5506537782 0.7115926242
114 3 4.0796874144 0.8309098659 6.2647872441
115 3 7.8799072268 -0.0255765038 5.9273331531
116 3 2.3112176863 16.3433667253 0.3306748284
117 3 8.8370346509 7.6647405186 13.739352033
118 3 9.3280787848 8.5512546821 5.7262966104
119 3 3.8375553549 14.1341451097 1.4206025514
120 3 8.1026965619 11.0317692225 5.4380841105
121 3 15.9557926167 7.0953341581 1.2472359507
122 3 6.8843776915 4.6061172066 3.7480107318
123 3 8.4568287293 1.3140263619 8.9069260089
124 3 9.858231788 15.6546817582 8.6718097014
125 3 16.7588599828 9.6447076626 13.0514745696
126 3 13.7824546146 7.9648688582 6.7102703514
127 3 8.9044013351 11.7664239519 11.075906652
128 3 6.552450522 9.3328595781 7.2739298112
129 3 11.8952193888 12.15552611 8.7835381881
130 3 2.7120200307 0.0750872811 11.6413782267
131 3 7.8975019979 6.2367225803 5.7604638741
132 3 13.9444088314 2.1696704719 7.1923622376
133 3 4.9885776708 0.4852473428 14.4602804094
134 3 18.6230733245 5.1482243073 0.0791036553
135 3 14.8493533299 10.5868856809 7.2115638078
136 3 9.7438026946 2.4040720669 11.4474096507
137 3 14.1578138423 16.0959652562 11.4716121846
138 3 10.1465713102 2.0689013164 0.2553386982
139 3 5.7479766878 12.4769893473 12.6316134228
140 3 5.1528285432 11.2375810326 5.204269719
141 3 11.9686350134 3.6919471445 2.3488200489
142 3 10.3686033164 16.9503972521 12.3445193871
143 3 12.7904482977 8.9900106959 4.3689506913
144 3 2.7258128271 12.0541881649 13.1975165742
145 3 14.3832529478 12.0786288514 13.8469224198
146 3 11.6447591776 3.9744384238 12.2948813034
147 3 3.3186622017 4.0581137589 7.4375337327
148 3 2.1395906976 16.2096992209 3.5611743729
149 3 11.541510642 6.5491951352 5.5640584326
150 3 4.2590601973 6.6464518208 7.2977502243
151 4 3.0504211469 13.800274047 4.5869379267
152 4 17.0831343943 15.2148655191 9.3699765282
153 4 3.0684516729 5.0289236752 1.6197893589
154 4 7.0419523338 3.7114526822 10.5038468751
155 4 -0.2376768931 15.8472468311 12.7425675231
156 4 12.9617064893 16.4276550776 0.4573943706
157 4 3.4846629657 8.1238524355 2.4121447359
158 4 11.2801156789 2.0171270101 8.8866626163
159 4 8.2578968423 13.8625420641 13.4860287684
160 4 6.7569943611 13.7429857585 6.6146526525
161 4 12.4498252367 7.2229069088 -0.2360720322
162 4 3.518279526 11.1577807972 2.6982517671
163 4 14.734549801 6.1884788929 11.0363499633
164 4 6.7885609529 11.5751064102 9.0273663426
165 4 11.206579354 7.3869466877 11.6870357445
166 4 6.6040202544 8.8765200702 3.322493859
167 4 2.6200875544 2.6264448535 13.6305684972
168 4 6.9904162566 14.3529153857 3.2031385962
169 4 14.6407358081 4.9985732501 7.500295806
170 4 9.374039913 0.9651898587 3.1655631024
171 4 5.7126694407 6.5216005559 12.7568065953
172 4 7.144563536 16.0294658529 8.5164340581
173 4 3.4770791038 2.3672429376 10.4815553679
174 4 9.4460231673 10.0287752923 8.7698651112
175 4 12.2827379929 11.4869820758 1.2062678667
176 4 10.0169808364 3.8819651745 4.5511373502
177 4 16.3005221345 9.1863291108 4.4169478536
178 4 14.7459625969 15.2721756569 4.7616284238
179 4 0.1637169714 9.5795194005 7.8979753476
180 4 8.7056037162 15.8213343044 4.4050775922
181 4 0.8085980877 0.2195466351 9.576813783
182 4 0.0796206826 14.3270319328 4.6905252114
183 4 9.4202165398 16.721172559 0.9644116077
184 4 2.9536093789 7.641468071 9.7122747612
185 4 16.6485739969 5.0267436673 3.473685195
186 4 -1.2259707475 15.7767891594 1.3034457513
187 4 14.378346168 5.3537406217 -0.5530370088
188 4 15.6339323896 12.578828067 2.4504092307
189 4 15.9555008213 2.342255487 4.9180079796
190 4 6.0158091232 0.3905456292 11.8839306726
191 4 9.9409316524 12.9209694861 1.2870090618
192 4 1.3256914834 10.1049296707 10.8791592462
193 4 13.3700445916 6.3207364052 2.621137338
194 4 13.5895054149 4.6461539712 4.6444471071
195 4 12.1790637461 8.8659403714 9.1800925023
196 4 4.6527667676 15.1979641146 12.4664894721
197 4 1.6399556904 4.8231130985 10.4189416623
198 4 9.7648264144 4.4964371896 9.76927332
199 4 11.4354361311 10.2477452085 6.7109665383
200 4 15.1211006874 3.202080236 13.1054761854
