# LAMMPS data file written by OVITO Basic 3.5.4
200 atoms
4 atom types
0.0 17.50115 xlo xhi
0.0 17.50115 ylo yhi
0.0 42.0 zlo zhi

Masses

1 183.84  # W
2 92.90638  # Nb
3 178.49  # Hf
4 91.224  # Zr

Atoms  # atomic

1 1 10.1759551117 -0.5835086423 11.2461195
2 1 4.4864059766 16.8484950141 7.15623888
3 1 13.4427040196 2.7595685562 10.5260442
4 1 3.120348288 7.7592225333 9.9863631
5 1 8.5357613346 1.2575068057 5.7385734
6 1 2.4012587616 5.8242224095 4.75546218
7 1 14.3597481786 5.3164130663 3.04653174
8 1 7.5492481108 -0.5679623708 11.82188154
9 1 17.2497540308 12.5367246128 10.27660788
10 1 9.823715591 12.4498870567 11.87775078
11 1 9.392456803 8.2512479392 6.44566062
12 1 8.1371460416 3.2361194453 7.50300054
13 1 16.752968312 13.4134424469 12.89664726
14 1 7.3909603598 6.2149663852 12.5579622
15 1 9.0414117359 9.1854808526 2.79872586
16 1 9.369401138 16.7652418685 2.05491426
17 1 0.9165257749 0.6203720146 4.60089168
18 1 13.5197633332 1.6537008146 4.30540152
19 1 16.1042654358 15.6950596719 5.93278728
20 1 14.4979661359 7.9654615102 2.80769454
21 1 3.6042914879 13.8619991965 3.20411574
22 1 13.4321345501 12.2152787156 3.96618768
23 1 11.3030358221 4.2343311378 10.85201544
24 1 2.3818130589 6.542279368 7.45290882
25 1 0.8405284311 15.669478941 -0.23753058
26 1 0.6388016006 14.3751833178 5.66316198
27 1 3.7647742332 3.8767871936 3.86367282
28 1 5.4383038508 15.3618004984 4.70379924
29 1 2.0738668487 10.8705003252 10.45036692
30 1 17.6922700835 0.1030378456 1.52580498
31 1 16.2106771531 11.0806768859 12.0165024
32 1 2.702466854 16.0502913641 9.1574364
33 1 13.6939407284 17.4013132897 6.41961642
34 1 10.6294134084 15.0346665525 8.97997128
35 1 16.1670469611 14.2247173557 8.29546284
36 1 10.2964426539 11.7821102021 3.27592734
37 1 11.6890462619 6.7380927349 6.23046144
38 1 4.1892255989 14.1214987232 6.91421388
39 1 12.9922076175 3.7581253713 1.53543138
40 1 3.2238703904 10.3371347528 7.97995926
41 1 -0.7963602538 9.1254207561 4.40711712
42 1 5.6735571093 1.7316941646 7.0808997
43 1 0.6869358885 1.4584424092 12.64913706
44 1 0.2806480914 15.7373333497 10.38417786
45 1 11.6068722372 3.2439030818 3.51044946
46 1 8.2809552663 1.6271771218 3.36778554
47 1 0.5648039382 16.3050704807 7.65582132
48 1 16.0977824848 16.89446826 11.88604788
49 1 6.5548677701 5.3268987053 3.2769723
50 1 11.4527942127 8.0067727998 1.87922238
51 2 9.1762402454 7.4341052448 0.75782658
52 2 15.496796144 7.5094333446 8.22118794
53 2 -1.5723397184 10.7284392904 2.84159526
54 2 5.1940031978 7.3598963436 11.3280321
55 2 16.9464281242 2.203882192 2.75460612
56 2 -0.084583233 13.0692261534 1.0927623
57 2 15.4762044659 17.341935563 3.8696952
58 2 2.709696054 12.676585578 5.96639106
59 2 1.1673559319 11.7429641548 12.9786468
60 2 14.3420349146 11.8203346388 10.32784746
61 2 7.7105672361 11.4356744128 3.040296
62 2 2.8635157615 17.065660309 11.80016544
63 2 -0.6021072895 5.4139065476 2.7964062
64 2 10.229847978 7.7870085841 8.9225031
65 2 13.0136745281 10.6383545709 2.13603264
66 2 8.2857302801 16.0798978846 4.1117244
67 2 4.3842332128 4.6011389657 1.08030888
68 2 2.7267666758 2.6515259067 12.21222366
69 2 4.1058070674 12.4229946146 8.8719099
70 2 3.4068764157 1.3696410491 5.30719686
71 2 3.1242631202 9.5862351362 12.66011124
72 2 13.3627344398 15.0284723704 8.57231088
73 2 7.8997021642 7.6100339801 14.59267824
74 2 6.3670582042 14.1531299517 2.39479968
75 2 14.8774264202 12.6137804261 1.06818432
76 2 5.0080386031 7.8200789321 8.11561296
77 2 11.8721810956 -0.3050466196 8.50402644
78 2 8.5261110255 13.7767290434 5.05312794
79 2 5.2553163767 10.7235041411 6.82280214
80 2 12.6746088231 4.44704239 5.61501234
81 2 13.6199150642 2.0674397264 7.92722658
82 2 8.4433802892 7.2721265012 3.90010782
83 2 4.2787492315 3.4524488853 13.84318908
84 2 0.9103107665 15.7698637872 12.9718932
85 2 0.1895028022 9.4147539682 13.69758138
86 2 9.093887009 13.2247996512 8.2345032
87 2 1.7537242622 1.2677169766 7.55786472
88 2 10.4192020204 4.592316811 8.00277702
89 2 13.8426434497 15.4099781892 2.40357684
90 2 14.0607863588 10.0211026613 5.0736441
91 2 9.9378722673 10.4554041993 8.82367038
92 2 1.2349030204 3.4208769857 4.4517963
93 2 1.3453982811 7.8605816686 3.47691582
94 2 6.2652725659 8.8910849079 4.3857723
95 2 9.7644594973 4.7287771278 13.00156914
96 2 3.4711341631 3.767754504 6.84130356
97 2 15.9289978939 15.6909195998 1.17277314
98 2 13.4423170692 12.6045695709 7.66545948
99 2 9.1646504589 7.9524144029 11.70455916
100 2 11.4456633692 6.5539157076 10.989237
101 3 17.3944517889 6.6303876826 6.15674514
102 3 3.6910660398 -1.1981647814 2.64182142
103 3 6.9671036832 6.0651616166 0.72481332
104 3 0.2113267363 4.3942841233 12.37946514
105 3 7.4446932656 16.2433446246 6.99019776
106 3 3.0285316547 13.9592690131 0.80499888
107 3 5.6044436678 2.6404111013 2.2862742
108 3 5.0498266239 4.4143658178 11.63341956
109 3 6.5769211443 12.6036378096 8.18460048
110 3 13.4514846966 7.7552786491 12.93767958
111 3 8.8610107567 14.9915125668 13.39575384
112 3 12.6324557283 9.5148533707 8.19212982
113 3 10.9241044225 14.8149247382 3.5719887
114 3 7.5866905962 6.1942164968 7.07341278
115 3 12.8630122031 6.2635187756 9.04694742
116 3 0.7347857827 0.9347495474 10.04693256
117 3 6.01446096 12.7320808496 4.83958776
118 3 4.6340491782 9.9422155277 10.53014004
119 3 6.2113086449 0.3848600891 4.57930074
120 3 12.0034524965 16.532545353 0.69585642
121 3 11.0231644318 5.5138946428 0.86369976
122 3 4.7944444178 6.481908801 5.75668212
123 3 8.0757514824 1.0124929809 0.35547498
124 3 16.1253541465 1.0738227859 6.60838374
125 3 11.2486951014 12.7677695447 5.93345298
126 3 11.3639723763 6.0599975522 3.57751422
127 3 6.2037091205 3.431564938 5.26517334
128 3 15.9175885442 13.8994789593 3.54016572
129 3 12.2031686198 13.0129778074 1.05414582
130 3 0.8057914485 8.7260324373 7.87295754
131 3 9.6232017653 2.0266156688 12.27221562
132 3 13.6109714515 14.828465903 4.99168446
133 3 11.5921063419 14.6504939085 11.86927224
134 3 0.8517856958 9.5315200659 1.57146234
135 3 -1.1229700403 12.1758426742 6.16155036
136 3 15.6480920106 2.3263200624 12.993393
137 3 2.9882244061 -0.7527615639 -0.05519094
138 3 9.3066733412 4.0073805998 5.27347086
139 3 6.439982521 12.9128092753 12.54926736
140 3 7.9881554264 10.9543430845 10.8801819
141 3 11.4354694743 9.8858154466 11.1462246
142 3 7.618356477 8.9004576488 8.56427964
143 3 15.9458009231 3.5412861228 4.87349436
144 3 5.236556544 1.1291836486 12.94395606
145 3 9.487937127 10.3929259688 13.68334002
146 3 5.4036288223 15.5496210901 13.10973804
147 3 17.5737279691 6.1722119508 9.8693826
148 3 8.2746494269 5.6582635543 9.9500772
149 3 2.2999155524 4.5251680486 9.5632215
150 3 16.4733097356 6.913776804 12.7059996
151 4 14.5060707434 5.6808053855 11.09056368
152 4 13.2759145599 11.8520188958 12.77118654
153 4 5.4633945495 6.5006509576 14.09880108
154 4 7.4163533033 3.3559769461 14.0496006
155 4 15.3217065888 17.3793552969 9.226875
156 4 14.3458893679 1.1685195834 1.44850188
157 4 6.4462803099 9.0645823834 1.28755032
158 4 11.9413430153 12.2650406104 10.14763386
159 4 8.8520711693 4.3560343099 2.3719983
160 4 3.7070839674 0.9333713318 9.50294394
161 4 19.4889703446 4.8094192768 1.58349912
162 4 0.2326457621 8.7860960341 11.01710064
163 4 10.721448631 2.2781063193 9.50694024
164 4 14.5683748374 14.5764866205 11.16663786
165 4 10.8435349033 1.8173281666 0.96767706
166 4 3.295344912 9.0541620237 5.37547416
167 4 9.3404169585 13.8292450942 1.23987234
168 4 0.8470497096 15.1462397089 3.09689352
169 4 5.2259662481 4.7661084808 8.83024422
170 4 10.442205882 16.3705890109 6.32080764
171 4 0.2048313595 3.8906545798 7.3451322
172 4 7.1735416482 2.4066792178 10.68720156
173 4 8.6106933834 0.6076077259 8.63179422
174 4 11.1856260321 9.3166778736 5.14748346
175 4 8.4949754296 10.6677067997 5.84376198
176 4 16.0273023785 2.8575914472 9.78581058
177 4 14.2385905173 7.0474808647 5.40197112
178 4 4.2221471872 11.0577607051 3.07453398
179 4 2.7077115986 16.2651057296 5.43694914
180 4 11.1010209227 18.0145173584 3.64854168
181 4 14.7475068082 9.0014317588 10.2828726
182 4 6.4875047937 16.8319294755 1.61083902
183 4 13.0235148997 17.4751387408 11.58463614
184 4 12.4334804286 4.5364631158 13.28209344
185 4 15.9781047207 4.3781380873 0.75649812
186 4 2.5020877871 1.3897995737 2.26460472
187 4 6.3775965217 9.1080879672 13.2300357
188 4 10.6997204283 7.2917949936 13.91740644
189 4 2.2540543138 6.4101950387 12.28733436
190 4 9.2809680021 10.945782922 0.87721704
191 4 7.9567455875 14.6494237132 10.44277038
192 4 3.1911194384 13.2916136165 11.23371102
193 4 1.2409853701 11.7760388781 4.08026136
194 4 13.5298180939 7.1010546851 0.69513234
195 4 15.7338019676 10.3255124141 7.8930768
196 4 5.4745056796 15.5969737766 9.94494942
197 4 15.0666042261 4.8193783062 7.17283686
198 4 4.0388175656 7.2978482914 2.8784238
199 4 10.9209069624 1.9677032977 6.54070914
200 4 1.2911028883 13.5585567323 8.5082823
