# LAMMPS data file written by OVITO Basic 3.5.4
200 atoms
4 atom types
0.0 17.620497 xlo xhi
0.0 17.620497 ylo yhi
0.0 42.27 zlo zhi

Masses

1 183.84  # W
2 92.90638  # Nb
3 178.49  # Hf
4 91.224  # Zr

Atoms  # atomic

1 1 3.3098523056 1.1449647414 2.8853700669
2 1 4.1391213508 3.5933070737 3.0116724042
3 1 8.1275146796 15.6915473621 1.0632350634
4 1 4.054960571 4.8774245802 10.1868172254
5 1 5.6130616522 4.2042148146 0.9952209426
6 1 9.4142623977 5.4556848881 11.8997092182
7 1 13.9724573148 5.8050434866 13.436851005
8 1 9.3464877991 11.1931387913 1.1108357331
9 1 16.7856720359 8.2801673884 10.6517804622
10 1 7.5711649311 15.995148173 10.9109209242
11 1 3.9301360892 13.6780757241 8.1609205323
12 1 16.3967016791 3.1620765979 9.386801679
13 1 16.402115753 12.8738395904 12.0008473791
14 1 8.1046358738 8.1163394079 10.1484161985
15 1 16.9197643705 10.9432589992 1.8620721222
16 1 8.7307982076 3.0834412535 7.4383047375
17 1 1.1991743767 12.9764042745 2.3091344367
18 1 9.5228291517 0.6485211587 6.5816727531
19 1 6.1530074228 1.7757616184 2.9916288156
20 1 16.7967165634 11.5454664436 4.5184871568
21 1 11.7147877902 2.8516751561 7.0009294389
22 1 16.8612216788 10.8892356127 9.2537255742
23 1 4.8345859803 17.1361733237 1.4174919021
24 1 5.8496948833 3.3857030828 11.9555263305
25 1 8.9536661302 13.8412078712 9.9145413609
26 1 13.8513114642 2.9813031616 2.827655877
27 1 1.7216622874 14.2994190282 7.163171421
28 1 15.7851196017 8.7268702465 7.6667208273
29 1 17.4778818072 12.783730307 0.1429368504
30 1 0.5494472712 1.9700631912 13.3134247185
31 1 14.7374596499 9.5033005311 2.2199498091
32 1 17.2926079198 1.2653627782 6.7443919635
33 1 9.092424901 13.2689959751 5.1466379556
34 1 5.8716889638 8.0044811451 0.1063403298
35 1 2.0210926791 12.1489478498 8.9217319218
36 1 1.6975935696 9.8752681655 3.9964991538
37 1 8.199896862 3.5162172231 2.6835671691
38 1 16.2006710069 1.7988435884 2.8108459434
39 1 6.3598251871 10.1711053854 11.5778358492
40 1 6.2772032053 3.4605091408 5.2999613904
41 1 7.63339154 10.5686100538 13.7767580241
42 1 2.3093929076 1.2594521586 7.7256016692
43 1 15.9223018667 2.8528435713 0.6698319777
44 1 1.4800607811 17.0095681145 6.3384845664
45 1 4.220885743 17.2329140811 9.6292230879
46 1 9.7785850271 10.850972351 3.4849890384
47 1 16.7153831686 17.4039525452 4.8896067666
48 1 12.4448585472 1.7860570985 4.8909272814
49 1 13.4628653171 13.7634465035 12.9728130585
50 1 14.1830014617 0.3491177263 3.5509391151
51 2 12.0781652562 13.4605001178 3.6848851365
52 2 14.6929684236 14.0473851304 7.4738867781
53 2 5.1836860861 5.6687781924 5.4846529695
54 2 13.2246601616 3.239291554 9.6479596881
55 2 0.0116894377 6.4329546548 9.2205262935
56 2 14.3042144464 12.7871099183 10.5480638313
57 2 4.2133794113 16.2721309325 7.2959376867
58 2 16.9328937552 12.7621578849 6.8551516218
59 2 4.2609803029 6.0219130396 13.7313570852
60 2 5.7795624859 4.766086122 8.2451008146
61 2 9.0658953045 5.6673266158 8.5664690571
62 2 12.6219581099 1.0826389291 0.746999667
63 2 1.184694557 0.8482135463 1.4668332504
64 2 3.8842353993 8.7773290065 12.1943070243
65 2 14.4279281321 9.4835220518 11.3202302109
66 2 6.7924519111 13.0449864205 1.3501160583
67 2 1.52128922 7.1480270209 6.543615804
68 2 7.9001642788 5.7747187875 0.7768342557
69 2 8.1381082986 8.4677759917 2.9446165443
70 2 1.3564029524 5.1933768309 4.8343028121
71 2 3.6882604079 8.7961519262 5.5139705961
72 2 5.1614204737 10.3662936217 0.2447014527
73 2 1.6850345603 13.8620146826 12.7264267236
74 2 1.3968664855 1.6972513795 4.5725238567
75 2 12.1958358162 13.7619309645 6.9792195669
76 2 11.9113583544 5.9621046677 9.6421353048
77 2 13.7858611853 16.9614125296 6.2621263476
78 2 6.6632483834 11.2889689215 3.2078711454
79 2 12.7648957577 0.4870056922 12.3987213627
80 2 12.3834937568 13.7312401114 1.0937155377
81 2 9.9674288272 8.415874113 1.3753060194
82 2 9.5844964861 6.2290654171 3.1435180293
83 2 10.6805786209 15.323550859 5.6104738515
84 2 3.8182977375 11.8824792409 11.2493189043
85 2 11.4042647671 13.3788692889 10.9240626672
86 2 9.8193794731 12.5891364101 7.7060889918
87 2 17.1637899286 3.8781027615 7.2552587295
88 2 10.5702159859 5.8961097392 0.2999825814
89 2 17.1469805031 4.7212408999 11.4300425985
90 2 16.2010324033 1.0873502976 11.7942476817
91 2 13.8243217965 10.7970097552 4.193002239
92 2 3.1175802616 3.0276080657 0.6755024982
93 2 1.8085910711 11.8641415897 6.0525973392
94 2 11.5052046652 10.852914306 12.319392831
95 2 15.634613598 14.6094631262 14.0078261337
96 2 1.4196566601 6.7100419038 12.0885973629
97 2 13.1063008163 14.9877512329 9.4258050534
98 2 16.7294933101 16.1587550162 7.2689635089
99 2 6.7608358057 16.0759018535 13.2456904251
100 2 6.4294613912 1.9848538364 8.1531589149
101 3 2.2669417825 15.1043881746 9.8230179342
102 3 5.6315016785 14.5481760422 9.8320954167
103 3 16.1340454409 0.0693657295 0.4489099362
104 3 11.6327948601 17.2332448178 3.5195815383
105 3 5.5517987083 16.7189234788 3.9971890002
106 3 1.4848288876 9.682139413 0.4977076923
107 3 1.2795985539 3.2472590141 2.6932994139
108 3 4.0761960891 9.9043090352 8.6176986063
109 3 0.1540632297 6.8410784918 2.9278247868
110 3 5.3908159094 7.6425996593 10.5591846456
111 3 14.2550537884 0.5652475709 10.0363778727
112 3 16.4225433714 6.2531200386 6.0895941567
113 3 7.1493943715 1.1077632909 0.6791554716
114 3 4.1748234732 1.0414883728 5.5901111244
115 3 7.3599927896 1.0074959672 5.5547070405
116 3 2.5035374818 16.60335152 0.1831778904
117 3 8.6517086069 8.4677507944 13.1499890316
118 3 9.9415670475 7.9098109723 5.3054328192
119 3 3.6713064943 14.6139235788 1.5214456677
120 3 8.5857441619 10.2666467157 5.6302570569
121 3 16.2997056006 7.7963446628 0.0970295169
122 3 5.9737599216 6.3424113785 2.8756056969
123 3 9.1191403937 1.1076646162 9.3685866906
124 3 9.9227798974 15.7635082384 8.2475423298
125 3 16.8374835215 10.391031566 13.0172844801
126 3 13.3526043523 7.7715730633 6.3545666106
127 3 8.9448576438 10.8707099507 10.9313707275
128 3 6.8748346065 8.1240231781 8.1290514885
129 3 12.2882431648 11.5059355634 9.5312065665
130 3 2.6097760396 0.8490614446 11.3970187383
131 3 7.8863573859 5.9675025307 5.9640213996
132 3 14.8528543465 2.3457510412 7.1642780496
133 3 4.497431338 1.2678914957 13.3547554791
134 3 17.5239389671 5.2559394627 0.4765591659
135 3 14.4865455346 11.3157959519 7.7760111804
136 3 10.3006951544 1.4662960012 12.1521710202
137 3 15.3044370249 15.810691348 11.3994471498
138 3 9.2929600771 3.0423981822 0.1556208093
139 3 6.9634211266 12.8633800634 12.3273433953
140 3 5.8619152265 11.3135567392 6.0926240703
141 3 11.0009016359 3.6524663065 3.2465705985
142 3 10.4811137139 16.2540496595 11.0813328519
143 3 11.9127835002 8.9608006694 3.8303471967
144 3 2.9282748045 12.0549629381 14.0605816299
145 3 14.2886264738 11.3863641042 13.3156899678
146 3 11.746723179 3.9999782769 12.0152999148
147 3 3.4628761021 3.9398811051 6.5778676077
148 3 1.8511650112 16.0679303406 3.6858658005
149 3 10.9153692766 5.5820217371 6.9289854762
150 3 4.1561501515 6.7941868252 8.1909381501
151 4 3.3720746856 14.2638150519 5.1662681436
152 4 17.2267405638 14.128002252 9.8311041852
153 4 2.6129119594 5.7334827718 1.6637882019
154 4 7.8798011514 3.6145602123 10.4305676031
155 4 0.5820559391 16.4754367555 12.4651626168
156 4 14.1424676228 15.8671294475 1.9202690355
157 4 4.198168341 8.5396329071 2.8291801332
158 4 11.8781856544 0.4662224922 8.5666178475
159 4 9.4963425492 13.579646042 13.4724288186
160 4 7.1421255641 14.519176052 6.9737371479
161 4 13.2199456214 8.5881335013 0.0343849542
162 4 3.5695676829 11.8418014425 3.2388360339
163 4 14.1277555651 6.952651655 10.9786209789
164 4 7.0606251269 11.7508202969 9.04810485
165 4 11.1203534519 8.5396565185 11.5533991395
166 4 6.2722185429 8.4846416266 4.9495012431
167 4 2.1417955504 3.787930573 11.9863821624
168 4 6.8307282119 13.7683416537 3.9653846295
169 4 14.7465382585 5.7424803262 8.3557750875
170 4 8.6302096623 0.7133369234 2.8463979723
171 4 6.9055252834 5.8136540949 12.3523871022
172 4 6.9360697101 17.053562619 8.5920990489
173 4 3.7278138423 2.3927674609 9.6717082422
174 4 10.0057077711 9.2346409895 8.3119977393
175 4 12.2988256829 11.0764061704 1.4275014381
176 4 9.1340372905 3.6949419241 5.0641522776
177 4 16.7902006798 8.7913637323 4.7973347382
178 4 14.7861068466 14.9526113806 4.7034847707
179 4 0.77111189 9.6550258732 7.453617045
180 4 8.0825991517 16.2286038998 4.7651144307
181 4 0.3488881313 0.0944962585 9.5922714993
182 4 0.0971245319 14.2491061659 4.8114140298
183 4 10.5501843001 16.6809974735 0.0309107829
184 4 2.1559257794 7.8669690245 10.0190395641
185 4 15.1658001879 5.7329897503 2.7017770851
186 4 0.2389644228 15.094134455 1.3772741106
187 4 12.3644366607 4.1437409165 0.4568769858
188 4 15.1625285903 13.0681889148 2.3340399207
189 4 16.4771225084 3.6495196308 4.5760394526
190 4 6.5819863515 0.555219746 11.5305631947
191 4 10.0206036106 14.2828228107 2.3642950959
192 4 1.2166921462 10.4113846497 11.4483231054
193 4 12.5099507776 6.9858689349 2.2772400309
194 4 13.1382802563 4.9390640742 5.3782171095
195 4 12.8303534372 8.4073112562 8.7392721987
196 4 4.1956678163 15.5299254678 12.0308438619
197 4 1.246324536 3.6896897826 9.421446171
198 4 10.6250018113 3.3755656585 9.7567504098
199 4 11.41645216 11.2505472515 6.1441000536
200 4 14.5879610099 3.3149011066 12.0687541341
