# LAMMPS data file written by OVITO Basic 3.5.4
200 atoms
4 atom types
0.0 17.616934 xlo xhi
0.0 17.616934 ylo yhi
0.0 42.27 zlo zhi

Masses

1 183.84  # W
2 92.90638  # Nb
3 178.49  # Hf
4 91.224  # Zr

Atoms  # atomic

1 1 10.0512074527 14.0683720728 1.9259852076
2 1 3.5827415979 3.8092176784 5.2029120066
3 1 13.3253606168 16.180483907 1.2546378504
4 1 3.4995658865 7.9697802656 11.7572593182
5 1 9.0721555064 -1.4386812777 2.9488422762
6 1 10.0321811639 7.2804694525 1.2044430708
7 1 18.5375495192 7.3068686042 12.5239762494
8 1 12.4703484458 -0.0980304863 6.7321733973
9 1 13.9772328026 12.056044843 10.3222591821
10 1 10.3991700863 16.2066695415 5.8417440117
11 1 13.3146792935 10.056623779 8.6595539376
12 1 7.4168062 0.2293858695 7.7202405651
13 1 17.1582984398 8.963174334 4.070977203
14 1 7.3399059929 10.7770344704 11.5451640981
15 1 14.344291488 12.2542779835 7.2827866443
16 1 6.5800814635 1.0285898838 0.2726951829
17 1 0.3644859083 0.4904797539 12.133844439
18 1 9.8332602584 0.5324332491 7.7291603805
19 1 6.7322637624 15.86473877 12.4341161472
20 1 11.9823454566 10.9142421992 11.1727675116
21 1 12.3474308692 11.6856287223 6.063749856
22 1 12.1978296274 14.1674125379 6.5465616003
23 1 2.2252594115 13.0162683387 10.3051601217
24 1 7.6101050134 6.1364840705 3.0399586428
25 1 -0.727137013 12.4322130688 6.4354422243
26 1 16.0314617338 10.4350115623 9.2521945548
27 1 3.7103396415 2.1996396329 7.823555631
28 1 2.5249976262 1.6629436143 5.029301508
29 1 -0.0921407929 9.3351507865 6.6946329876
30 1 16.6502329338 8.902584589 11.7580311684
31 1 6.7275857617 11.6683024677 9.0878115972
32 1 -1.4484717126 11.2837929761 4.122673413
33 1 13.9673149973 14.682175826 9.9624188991
34 1 13.5578638028 -0.4046680208 10.9039924485
35 1 15.0330168904 9.9150179827 6.0960847152
36 1 9.8208114281 10.8648531247 5.1829774746
37 1 15.5069555765 3.798611051 2.9885046399
38 1 -1.011271733 15.0188458287 5.5685475066
39 1 5.6765719873 4.6149436578 4.0681823106
40 1 7.3111646697 7.2369395941 7.9376685684
41 1 4.0422883059 14.768188216 6.7649030583
42 1 -0.1560044688 19.762850088 13.6516464327
43 1 16.721915886 4.0949347515 9.0362176806
44 1 4.7395011948 7.8291411104 7.9881334533
45 1 8.5850596132 2.8220679323 7.1458880634
46 1 8.9839357145 14.3774351068 7.1206528734
47 1 11.3287573814 -0.4298826099 1.5274775967
48 1 19.2125143344 7.8062468477 4.3123820184
49 1 7.6709489707 3.5258917518 1.4141373549
50 1 1.5597992845 2.9534178543 11.3637184323
51 2 13.2244236887 18.3510323445 3.1491221859
52 2 -0.0114055554 6.3464867323 7.0863947292
53 2 12.3517810187 2.5944085223 1.0016218887
54 2 9.5390845906 10.0344097061 9.8665539207
55 2 0.6038108997 19.3917972914 9.0142165683
56 2 16.6371303392 16.772801519 9.9675610446
57 2 8.3565478959 3.7195513601 4.4277321987
58 2 12.1621130554 12.2674417089 0.6176889738
59 2 4.0649683467 15.0089209766 9.9820085079
60 2 12.3226010339 3.5243633067 7.1489936403
61 2 9.9826340656 5.1235403143 7.4175484767
62 2 2.0431841706 17.9325665648 2.650654479
63 2 6.109882324 4.6239175478 7.1944693971
64 2 10.9250306334 5.431639702 5.0351056017
65 2 16.3434290955 13.2832862695 8.7294431556
66 2 11.760798418 12.6668866611 9.1164672756
67 2 5.7803454179 10.7833434468 1.3635997656
68 2 5.7922659163 12.9467082271 11.1507152526
69 2 5.0968200059 17.6374478626 7.9087275675
70 2 1.4470797986 9.8853022669 12.0384461214
71 2 5.9428840075 12.9425953777 6.1409374122
72 2 14.2554573936 8.5839271967 11.0671850829
73 2 4.6433969441 6.0121453359 12.7389640056
74 2 3.249556577 17.1861691341 6.2551365804
75 2 21.3700542517 8.2190010411 1.2231365556
76 2 11.5096107118 4.1044581136 11.3575626522
77 2 12.3312329792 1.2051813255 9.544189797
78 2 9.5081233576 12.1585174392 7.5696435453
79 2 9.9428508005 20.1760940322 0.4444462242
80 2 6.1061279792 19.8311741955 6.1919750556
81 2 1.9700555729 -4.1714995321 2.6810800023
82 2 10.4118856369 3.3623722513 9.2644963929
83 2 16.9403475459 5.8772942244 11.0123828733
84 2 0.8209690315 15.1005644434 11.1895634961
85 2 7.5372945776 13.6479592696 12.5696253132
86 2 10.9101598271 9.3227863414 7.4239714032
87 2 0.9365140974 5.3661302521 4.027278477
88 2 9.5996232465 2.824189892 12.0173199981
89 2 11.3401699836 15.3879945871 -0.608007453
90 2 17.2477572307 1.9530229926 3.3648023247
91 2 15.2300987643 7.2767350148 6.0003435879
92 2 2.2070679893 8.6933609481 6.5419647378
93 2 7.2248823883 11.5538565224 4.2451114269
94 2 13.3489750598 3.9616811435 3.920073303
95 2 7.7892614808 9.8662990564 7.6009842141
96 2 2.0610443944 13.599536484 5.2761088521
97 2 18.4556977204 7.4067671902 2.1160755111
98 2 13.6738322036 13.6777052865 2.00643009
99 2 2.3929185392 5.6959157332 11.107030053
100 2 7.0984939233 8.7230939285 9.9876845235
101 3 16.0863064204 2.5078145972 11.5769587467
102 3 2.5545190271 3.4921162136 2.3892593352
103 3 4.1874067427 9.189020433 3.6582880071
104 3 4.0285624241 15.7891341122 3.6413973378
105 3 3.1816283221 10.9409004961 1.569282204
106 3 -0.4224875495 11.0068306384 1.7326587129
107 3 6.4575146401 8.5716333954 5.2728464535
108 3 4.1100643505 18.286419068 0.8904877182
109 3 1.2708979506 14.6155723645 8.0822974869
110 3 0.9174967933 16.140976347 13.7207198397
111 3 15.2969203234 17.0522915343 12.7864112352
112 3 13.8000897747 4.5569251044 9.5760174162
113 3 6.6960704762 15.8637684292 5.8247979687
114 3 9.057786078 -0.473924064 13.5418822329
115 3 5.7147158205 2.5334227487 9.0228134409
116 3 16.8512270002 13.6718532934 2.6616476379
117 3 4.9430176538 0.9903662459 4.2016058748
118 3 12.3336040424 8.8691018443 5.2665735855
119 3 15.0198205737 -2.901499869 -0.2369043285
120 3 4.2802219118 12.7608890354 8.5401690858
121 3 12.348825778 6.696894244 7.3865607624
122 3 4.9053720275 10.9626625185 13.7330901552
123 3 4.0310608577 14.8263462956 0.7435779105
124 3 4.4567737155 12.4050817572 3.469005906
125 3 12.1361279016 7.4743651276 10.4180252487
126 3 9.3421720155 6.5897698964 9.7708423824
127 3 7.8974745549 1.2648516427 2.7699683172
128 3 10.8693306447 9.2210681023 2.4358303077
129 3 17.6416556673 12.0782705431 11.1838075902
130 3 1.6177299294 4.8925995742 8.488179522
131 3 5.0180175222 4.1337950653 0.8468557788
132 3 11.8584214246 15.7974625177 3.9805963344
133 3 6.85132693 14.8508840421 8.7979197102
134 3 9.9323001949 4.4090920742 2.6055063147
135 3 14.2173042235 13.5530357058 4.7563057854
136 3 12.7427448265 2.2128984898 13.2852838887
137 3 6.9248866141 13.7942862281 2.9022620043
138 3 12.8325061001 17.8787272767 -0.5012232882
139 3 6.6672641465 6.5012522022 0.6711271305
140 3 6.0536425524 -0.4213949472 10.6082343309
141 3 10.1453135907 12.8044252358 12.2260982913
142 3 8.645840678 13.0288727265 10.1024615226
143 3 17.4576924195 4.1498090345 1.413377763
144 3 4.2843742232 3.0800846668 11.3351088282
145 3 3.9933884537 14.9832878091 13.2437303652
146 3 9.4993959285 8.1461044585 5.6011313361
147 3 3.5613824747 6.0389540814 2.6365033284
148 3 12.5353195222 6.8446811178 2.898183372
149 3 0.9746991542 8.1680111159 9.7196386179
150 3 15.6290807434 7.4923204829 9.2335213596
151 4 1.0965244809 4.6797639333 13.9079277519
152 4 2.5774663169 2.4532544241 13.9887932208
153 4 7.9152459894 0.218006211 5.1917895015
154 4 6.7779652602 3.2143512484 13.4170204572
155 4 14.5009167776 5.9830802135 12.1582532505
156 4 12.0042979181 12.1790792198 3.2418697518
157 4 7.367384358 8.8580697679 2.563984071
158 4 5.8198575583 8.7135279333 12.9164878608
159 4 11.808488163 5.9751707386 0.043056222
160 4 15.6617444769 13.6128508342 12.2739086202
161 4 3.0561550569 12.7141056816 12.5422973355
162 4 1.7263841315 10.8195802469 4.424121918
163 4 14.7526935941 10.743421008 12.6491639268
164 4 14.6923688078 16.0313639598 7.0131454689
165 4 9.5227825846 9.5168921865 12.6703335882
166 4 4.2475298151 10.4999977893 6.4789270641
167 4 3.5079457335 17.601192741 11.4684060051
168 4 1.1282672011 15.9389701877 0.7950150054
169 4 2.8378703221 7.3531726012 14.4214182168
170 4 11.5750826377 15.9250998471 8.768133732
171 4 -1.8157543092 6.5894402836 2.813541924
172 4 9.4434626916 15.7809344864 10.7380738218
173 4 5.5624193639 0.1952782521 13.4481252594
174 4 13.9013291855 9.6009559675 2.9886251094
175 4 9.6454360833 13.5445767588 4.612455903
176 4 17.3784008898 -0.3918416596 6.9829372134
177 4 10.82131252 0.4541349621 11.6587981164
178 4 9.0690903361 4.877615491 -0.3366403935
179 4 4.0403099242 6.1863209675 6.0064300452
180 4 14.9679314801 1.2302882752 8.3337071886
181 4 4.3536732518 5.4541159149 9.3932148834
182 4 9.1091552959 16.8979696589 0.0498443613
183 4 8.3306502982 1.7066077138 9.6977080965
184 4 18.9094488095 11.5234685444 8.1821510625
185 4 11.9031888726 14.986123607 11.5988934951
186 4 16.2671142991 -0.5729203106 1.0560639579
187 4 7.0245917661 5.0930069967 10.1371542024
188 4 8.9844198279 5.6772298036 12.3958757463
189 4 6.684878438 -1.7559532744 1.3642718586
190 4 18.407468721 19.5569037253 0.4555864827
191 4 18.4979094798 16.6572825262 4.4178389052
192 4 3.0624226335 17.4933251349 15.0589254801
193 4 4.2566863927 10.2551764907 10.279666662
194 4 15.5656883204 2.4266517968 0.921942516
195 4 14.9212908235 1.8803069834 5.0896267158
196 4 2.3501840854 17.0605156476 8.9904832314
197 4 14.9716907576 4.5894163681 6.652160937
198 4 9.0674352251 11.9181590384 1.2085441062
199 4 0.2951114793 2.8196686821 6.3223822326
200 4 11.188843163 19.1037410418 4.4868307311
