# LAMMPS data file written by OVITO Basic 3.5.4
200 atoms
4 atom types
0.0 17.50115 xlo xhi
0.0 17.50115 ylo yhi
0.0 42.0 zlo zhi

Masses

1 183.84  # W
2 92.90638  # Nb
3 178.49  # Hf
4 91.224  # Zr

Atoms  # atomic

1 1 10.5189993531 -0.1904900421 11.51062878
2 1 5.0703953755 17.3790789537 7.17225348
3 1 12.1563574189 2.3520156009 11.67046692
4 1 3.7851117946 7.5387414705 8.9563593
5 1 9.166219787 0.967965855 6.08407338
6 1 1.6390976801 6.3606253065 4.71477468
7 1 13.3195356513 4.7474932076 2.2976835
8 1 8.0939808552 0.3449618424 10.49376804
9 1 16.3297537526 11.6789838006 11.8329477
10 1 7.6415607267 13.886979463 13.31371692
11 1 10.4808505213 8.6292094251 6.04551024
12 1 8.7880397118 3.1242982975 7.61357982
13 1 15.6714096678 13.6505121497 13.54854102
14 1 6.7806257797 6.6505038544 13.02268254
15 1 9.6759560068 9.3290534618 2.84135922
16 1 9.147471155 16.6484768209 1.88566308
17 1 0.7334073922 -0.3378964532 5.04397446
18 1 13.9756532397 -0.20674231 4.62244356
19 1 15.4407697125 15.9926616523 6.45114918
20 1 14.7053404124 8.3527418334 1.86339636
21 1 3.7074731929 14.5838560047 3.27728772
22 1 12.943667478 12.4625008355 3.95111094
23 1 11.6100553464 4.814079833 11.18404686
24 1 3.2210539303 5.8089766327 7.24777578
25 1 1.2702215662 15.8603536583 -0.09798642
26 1 0.0879795061 14.0560134452 6.09985866
27 1 2.2165475993 3.7975029588 5.66826876
28 1 5.7166727674 15.821252764 4.93037412
29 1 0.9547827637 12.1201874421 10.78779702
30 1 16.7309345392 0.0749266234 1.07464098
31 1 15.73421937 9.6730278893 12.96052044
32 1 2.8059341778 16.1682732667 9.13584168
33 1 13.1393632371 16.7226204428 7.3875501
34 1 11.9881095883 16.3315325695 9.7333782
35 1 16.6464139603 13.7465232836 8.43604566
36 1 10.0712523817 11.8598268588 3.5527569
37 1 12.548446708 7.4179049553 6.40014984
38 1 4.8555680592 14.4560652326 7.85089326
39 1 13.2887227765 2.5046643064 0.84905436
40 1 2.7832707136 10.0448515469 8.32294092
41 1 1.0586344128 9.7094278312 3.67245018
42 1 6.8991064651 1.3920384958 8.03949846
43 1 1.4922229539 -0.4406261035 12.92549664
44 1 0.5014861776 15.0328606088 10.21582506
45 1 12.6962300939 2.0242720899 3.80254182
46 1 9.1764845615 1.7319565068 3.12908946
47 1 0.4272077968 16.0785389203 7.81796064
48 1 16.6839943547 16.4569160584 12.66690894
49 1 5.691891839 5.8653469618 2.47709658
50 1 10.9486492604 9.6096735513 0.60131148
51 2 9.4312500271 7.2964194975 1.60314714
52 2 15.5216189001 8.2455171877 8.33116494
53 2 -0.6806843027 10.2019483447 1.52794194
54 2 6.6495400661 7.0967228004 10.47094272
55 2 16.1540091294 0.6242675956 3.53530464
56 2 0.1204661908 13.3136690908 0.87509016
57 2 16.1456532053 15.4007766095 4.10160366
58 2 3.3481261053 11.8243107251 6.12128664
59 2 1.0461630933 11.3101598402 12.96725052
60 2 14.2643742616 11.6121252074 9.46501248
61 2 7.1882462894 11.0475874616 3.63232926
62 2 3.571483132 17.3240331117 11.63532384
63 2 -2.2143349289 6.0753269845 1.24611354
64 2 10.78961176 7.5511657119 8.69036028
65 2 13.1759096636 10.481118639 1.54263732
66 2 8.1840527988 15.6650579755 4.09521126
67 2 2.7889409112 4.8998114915 3.05904312
68 2 3.3235119629 2.4825745299 12.10504764
69 2 4.6968072521 11.7556164362 8.6087421
70 2 3.5524182543 0.8825278659 4.9091469
71 2 3.4133114136 10.5859046745 10.94197314
72 2 13.4543326588 14.1778890036 8.16027702
73 2 9.8236979149 7.4033798759 13.18882992
74 2 6.1512137211 13.558628137 2.38587174
75 2 14.2536584824 12.4639574562 0.69949656
76 2 5.7518929567 7.9606742456 7.35237552
77 2 13.2214116035 1.7954118265 9.31062006
78 2 9.1130987214 13.3523909102 5.57785116
79 2 5.7125109939 10.3517238864 6.71481804
80 2 12.4097702206 4.6555244894 4.95128466
81 2 13.2201700719 4.097749888 8.63400048
82 2 7.9823669211 5.9779880384 3.77149374
83 2 2.6917932526 5.1491020723 12.91387314
84 2 0.488875549 14.2287919735 12.9797136
85 2 1.5162480076 7.654987434 13.10564094
86 2 10.5306845209 13.6086747756 8.30683434
87 2 2.4629585409 0.6989663541 7.31785404
88 2 10.8395490164 5.2357640919 7.41826764
89 2 13.6484639901 14.544520245 2.34931326
90 2 15.0147875212 10.2900921866 4.08212616
91 2 11.5366691742 10.5330802534 8.80665534
92 2 0.4279057427 2.2147414806 6.1626222
93 2 -0.2151531877 7.3299928286 2.73468762
94 2 7.2837759667 8.4057750432 5.19560286
95 2 9.1587161689 5.1145892795 12.88974792
96 2 4.4803206517 2.9027690909 6.6172743
97 2 15.5701700654 14.9209423296 0.44790186
98 2 15.0955219013 12.6922062295 6.37954506
99 2 8.4632846972 8.6077936178 11.48406294
100 2 11.8270900827 7.6175620998 11.54431446
101 3 16.9642649463 8.1641359651 5.48370144
102 3 3.8070701375 0.228565019 2.15750766
103 3 4.5577369888 4.2770743714 0.6756477
104 3 0.4319009052 3.3654503186 11.83479612
105 3 7.5574904525 16.2745869776 7.23818298
106 3 3.5491593651 14.4606505339 0.76485192
107 3 4.6796843019 2.7471275137 3.5276745
108 3 4.6309441242 5.074466318 10.71323106
109 3 7.0439472075 13.2845741289 8.41409688
110 3 13.2996618704 8.9104880829 13.60464126
111 3 8.351806747 17.1703189361 13.21038348
112 3 14.0317719023 9.831065199 6.83055492
113 3 10.7688664219 14.3279114866 3.4691727
114 3 8.3481187296 6.1668777753 6.48778704
115 3 13.4215899322 6.9291909419 9.33111858
116 3 0.5707795309 0.5387632771 10.44257172
117 3 5.9801186284 12.7763335575 5.39108052
118 3 5.8737716653 9.67029806 10.3389993
119 3 6.5866008553 0.7467943718 4.91814078
120 3 11.2742833578 15.236866964 0.73933608
121 3 10.5325933714 4.3032361405 1.74252456
122 3 4.6498513166 5.7523469365 4.87028304
123 3 7.0276307104 1.2643688316 1.41764406
124 3 15.2961650605 1.2958934781 6.76604586
125 3 11.7946742777 12.3047960477 6.3222621
126 3 10.9866488073 6.6453828429 3.90632172
127 3 7.0090075617 3.4221459941 5.4955992
128 3 16.2853641858 12.5661482462 3.30423366
129 3 11.3096349807 12.218967783 1.1763591
130 3 1.0586109613 7.8267064426 7.69898304
131 3 9.5341004354 2.4409905724 12.39668052
132 3 13.4186940169 14.772264635 5.25809802
133 3 10.3277285847 14.2931079997 13.00009914
134 3 1.7933529912 11.2515938169 1.35738162
135 3 -0.3764058086 10.94537112 6.05464776
136 3 15.2497049326 1.7214250148 11.73497556
137 3 2.1839312311 0.8316844 -0.11233488
138 3 9.8622566236 3.6917727363 5.12697318
139 3 5.8882718932 12.2965626317 11.41581126
140 3 8.6279435669 11.7257680498 9.94667016
141 3 10.6651988849 9.9779640767 11.07539748
142 3 8.1866147922 8.8201646477 8.44385892
143 3 14.5144588696 3.4149106687 4.64262078
144 3 5.9858878825 1.1936783616 12.38730402
145 3 8.8946526923 11.8990647872 12.65776806
146 3 5.3472945456 15.1597896243 12.96201144
147 3 16.5424359529 5.4106893112 9.6975438
148 3 8.8601939781 5.9034502905 9.81783012
149 3 2.1716697503 3.785636304 8.83961862
150 3 16.1290710407 6.7227226999 12.71148354
151 4 14.6125524653 4.5800313537 11.4045141
152 4 13.6010223977 11.7093822481 13.09249536
153 4 4.0814433665 7.8399794898 12.65461764
154 4 4.8754679168 3.7439965179 13.87148238
155 4 15.2489443326 16.7295676994 9.72323478
156 4 14.0379445579 -0.2296359144 1.45205928
157 4 6.5004974725 8.7373222542 2.2634955
158 4 11.9185892451 12.8283053225 10.52500974
159 4 7.718829004 3.8545409568 2.06314794
160 4 4.6443017019 1.7200499494 9.7378596
161 4 16.9158919427 4.512404635 4.02434466
162 4 0.2527643841 8.8633063826 11.13648018
163 4 10.1536969741 3.0421305733 9.6242874
164 4 14.6377724976 14.2576613455 10.92522858
165 4 11.1569570483 1.2235230727 0.93168432
166 4 3.1626497926 8.702560595 5.4919557
167 4 8.9522866045 13.9197927191 1.63313094
168 4 1.0530384201 16.0945417968 2.49692226
169 4 5.717458569 4.9435309393 8.1315381
170 4 10.6565351156 16.2528419737 6.25675344
171 4 0.3189980113 5.1966285453 7.10333736
172 4 7.3012862173 3.45738981 10.94425836
173 4 9.9805465464 0.3297244662 8.64143574
174 4 12.1218518015 9.5735172255 3.9842733
175 4 9.148733863 10.9894841686 6.42534354
176 4 16.0775362794 2.3876414668 9.2048985
177 4 14.2225444129 6.8988386975 4.0213719
178 4 3.8779335189 10.8007298906 3.10574376
179 4 3.1849681342 15.5394207198 5.9266494
180 4 11.2359941668 17.0292145141 3.25755528
181 4 14.2957539985 9.5740942384 10.88991288
182 4 6.4629179531 16.2915858446 1.63389156
183 4 13.6882644054 17.1994520504 12.41415798
184 4 12.5586243268 5.9206579462 13.55732994
185 4 15.7267542545 2.93965994 1.5264501
186 4 1.4453727254 2.0761903014 2.94373548
187 4 6.5010596094 9.2559737347 13.34512494
188 4 10.4868770424 10.2693951516 13.94773716
189 4 1.8184527905 6.1179338842 10.69954956
190 4 8.3592146337 11.4546264081 0.7904232
191 4 8.9552481491 14.8895739684 10.65908928
192 4 3.3710883141 14.0845082926 10.5846951
193 4 1.5209925694 12.8726677626 3.75604194
194 4 12.3860405863 7.2185164535 0.99978228
195 4 16.8015406537 10.915710171 8.81687058
196 4 5.7811034261 16.0235226552 10.2247425
197 4 14.938723323 6.1028765948 7.07189028
198 4 2.9344592982 8.1179828074 2.64298272
199 4 11.7381460882 2.0410731939 6.67640526
200 4 2.1002837846 13.3001372016 7.81698918
