# LAMMPS data file written by OVITO Basic 3.5.4
200 atoms
4 atom types
0.0 17.620497 xlo xhi
0.0 17.620497 ylo yhi
0.0 42.27 zlo zhi

Masses

1 183.84  # W
2 92.90638  # Nb
3 178.49  # Hf
4 91.224  # Zr

Atoms  # atomic

1 1 3.2118162654 0.9700104743 3.9725037429
2 1 4.7015794208 3.2160124106 4.9995869661
3 1 6.7436716796 17.1178065986 3.3033890871
4 1 4.8961768417 5.1540429478 9.9802107648
5 1 5.280922332 2.0168556544 2.5441438011
6 1 7.7769173601 6.2213469346 12.2382991041
7 1 14.1767773736 4.7059075434 12.4782680076
8 1 9.6825779871 11.141017185 1.5459081621
9 1 15.8778011253 9.0347306363 9.5004044175
10 1 8.092111577 15.6748711475 11.7445051911
11 1 4.3931419596 11.9165215125 7.0631272077
12 1 16.1913978679 2.4530709688 8.7057377169
13 1 14.8847074475 13.3607896018 11.648200182
14 1 9.6329184929 7.5144672817 10.512451779
15 1 17.2195279658 10.1570329517 1.6743159681
16 1 8.9359608786 3.0063646183 5.8929393222
17 1 1.1604656688 12.2569098684 2.7968816262
18 1 10.7623849499 1.0805694017 6.7822861731
19 1 6.5615004093 1.7153567926 5.5164624126
20 1 16.2992384813 11.0914882586 4.5751378335
21 1 12.0348380399 5.0240833246 7.1556490518
22 1 15.9985010011 11.3729221318 9.7729989978
23 1 4.6836836916 16.4500473813 2.3173986444
24 1 2.954982368 2.6657563586 13.7430772881
25 1 8.0933522362 13.9879973597 9.8767896012
26 1 15.1237786505 4.0697767659 1.7404199076
27 1 1.8849597148 14.1104457174 6.6463056966
28 1 15.8351871867 6.5378984584 8.256611781
29 1 17.6638018382 11.9399772133 0.1707217668
30 1 0.1972505392 2.1552991945 10.9892117274
31 1 14.5346600637 10.2749200676 2.3808353469
32 1 17.3450311891 0.172269432 6.4834250148
33 1 9.15745405 13.7535559423 4.8271841214
34 1 7.2762540207 6.6220803828 1.8067204026
35 1 1.903127152 11.7136086266 7.9016756634
36 1 1.0935874249 9.805256821 3.8595591483
37 1 9.3456097697 2.8739945111 0.4197055932
38 1 16.9802958876 1.9925011321 2.3778701064
39 1 7.5017206141 8.8857496866 10.6913671626
40 1 6.5286207381 3.9429764978 6.8945992539
41 1 8.1414177803 10.8208969819 13.1444753328
42 1 1.0177033449 2.0361567944 8.0953775157
43 1 17.5158522162 4.4808460452 1.0566794091
44 1 2.2417220937 16.7136082559 6.8477788884
45 1 3.632557788 17.3100834001 9.4366967643
46 1 10.4877851864 11.6077704065 3.7781657271
47 1 16.8678027583 17.2565634312 3.6254370312
48 1 13.1461361787 3.0566762472 5.1443093013
49 1 11.945201162 12.6259480952 12.9645209526
50 1 14.2619615519 0.2354625252 2.7113744886
51 2 11.9369323914 13.9121427059 3.7687069692
52 2 14.7678458445 13.6917763653 5.8917887328
53 2 5.2992582212 6.2748829382 5.2519781772
54 2 14.5001064453 4.7855617049 9.8869948473
55 2 0.2009023872 4.6408072076 9.628307097
56 2 14.4893064903 13.8057742851 8.6697752463
57 2 4.4627364032 15.2398753477 7.3302262653
58 2 16.9887246524 12.8766960492 6.9401177034
59 2 2.6447585409 9.0017087677 12.9123065124
60 2 7.5630949197 5.1169394673 9.5370622296
61 2 11.2402464852 8.0056812771 7.4900470218
62 2 11.6789912219 1.5321136675 1.8550138776
63 2 1.5116293111 0.143934968 2.3759341404
64 2 5.6845057194 10.0396353332 12.3262177452
65 2 14.3587742009 10.3117530735 11.5964223909
66 2 7.0993988543 11.8715827255 0.9056144604
67 2 0.9796425428 7.0111850078 7.5282582564
68 2 7.123120977 3.4439478119 0.9388074006
69 2 8.6147078538 8.6731968029 -0.203081988
70 2 2.0593895959 4.4526724563 4.8461067096
71 2 2.4058460986 7.3310227543 5.160325827
72 2 6.3176940501 8.9279606444 1.1442510135
73 2 2.6161176565 13.6160781816 12.6702570795
74 2 0.8358168219 1.8063863946 4.9665360531
75 2 12.4627653773 13.2691683035 6.4671142899
76 2 13.40091535 7.6977171026 9.4298921397
77 2 14.9319700256 16.9167865065 5.5330702956
78 2 7.0519334643 11.793316002 3.4350749316
79 2 13.7339651213 1.79526187 9.9437220327
80 2 14.2308187331 15.0948047387 0.9404842515
81 2 9.8377259346 8.5535210304 2.1934735719
82 2 9.3471778177 5.0834050184 1.7395546407
83 2 11.1728963643 16.0620035103 6.1532929332
84 2 4.2287554094 12.3062786245 11.0704614306
85 2 10.4290062039 14.2566583109 11.073826968
86 2 9.5279611214 13.6091371154 7.8330186159
87 2 17.6100438164 4.0126852984 6.6229540578
88 2 11.1159224255 6.1043625168 -0.0996616698
89 2 17.1531288231 3.9353871735 12.2856478446
90 2 15.8727553198 0.1973650724 9.5502961212
91 2 13.8508980873 11.4856633578 4.5756670539
92 2 3.7824953545 0.9668424852 0.4127737359
93 2 1.7993189894 11.7183273957 5.3686771932
94 2 10.6836523404 10.1059523643 13.1394371715
95 2 13.905039355 14.5271480935 13.6821586095
96 2 0.1770574496 7.1971402798 11.3347879989
97 2 11.8659159737 15.4923143407 8.9466048579
98 2 17.1912588738 15.6137304898 7.8841150146
99 2 7.6934173489 16.526324046 14.3366212152
100 2 5.7720579162 2.9035863737 9.0432256239
101 3 2.6642124506 14.4306792203 9.7707096546
102 3 5.3802104847 14.5482380663 9.6572869863
103 3 14.3745921211 1.2980886224 0.3469973889
104 3 12.2414891142 18.0107168263 4.413786903
105 3 4.4154436941 16.6907134155 5.17291806
106 3 2.1513939638 9.7622908249 0.3254168631
107 3 2.3233627901 3.0087023296 2.1309034044
108 3 2.8004576575 9.484252069 7.331376432
109 3 1.2248583655 6.5347634196 2.756528148
110 3 4.7927610876 9.3499558653 9.2704978875
111 3 13.99494195 -1.7290956703 7.5827497815
112 3 17.0316798999 7.1022420977 5.4284089302
113 3 6.8367671086 0.5523840794 0.6952641459
114 3 4.1477309018 1.5150127989 7.1537646552
115 3 6.469680528 -0.2064993619 7.2173154867
116 3 2.8922045899 16.212255074 0.3859834326
117 3 8.1847828806 8.3903874737 13.6506281484
118 3 8.8072579492 9.8470260329 5.2522178481
119 3 3.3894684068 13.7367743571 1.1823633363
120 3 8.473765551 11.5613844482 7.4991591657
121 3 15.8880486777 6.9712173155 1.7099521143
122 3 7.0475819064 4.3993766201 3.8020842066
123 3 8.6849820962 2.2997934371 8.6044182177
124 3 8.9069830903 16.466968697 8.700032535
125 3 16.6776178622 10.3618444462 11.9724782913
126 3 13.7980549216 7.8022478817 6.4053836046
127 3 9.4541250718 11.5196087166 10.6263343449
128 3 6.0810148296 10.1094884457 6.804142722
129 3 12.4841353399 12.2599201541 10.1008358184
130 3 2.8221914833 -0.568137861 11.9809800564
131 3 9.118109066 6.0683122133 6.2281214007
132 3 14.0404650326 1.224344728 7.1249699085
133 3 3.3399484669 0.7065026375 15.119847963
134 3 19.7151513776 6.9828394429 -0.114750369
135 3 14.0977980771 10.653501027 7.7787739476
136 3 8.7285387313 3.2114525784 11.224409616
137 3 14.0445413584 16.0383775955 11.2701664683
138 3 10.1204637247 0.1357141251 -0.5002409334
139 3 6.7705681348 12.8762194147 12.162418959
140 3 4.6568517274 9.6233535585 4.4441743833
141 3 12.6798462001 5.1189564856 1.8706398285
142 3 10.6425268053 17.7644885298 10.1328194139
143 3 12.2024588324 9.2061407167 4.4210666424
144 3 3.779075216 11.0311058108 14.2876772049
145 3 13.4620103706 11.1438683576 14.3574996363
146 3 11.6693297272 1.8069641706 12.4642576161
147 3 2.5791054501 4.3783366894 7.5553406454
148 3 2.370975135 15.4910308637 3.7247165802
149 3 11.2834205794 6.4823431458 4.2288789015
150 3 5.1196813928 7.1682796678 7.6096854936
151 4 4.1506601332 12.9183944267 4.4375185491
152 4 16.9881459952 13.7999855995 10.3196840937
153 4 4.9655945517 5.4405492336 1.9944321732
154 4 5.6705046487 4.1549188312 12.2767178844
155 4 -1.2067610578 15.9376304656 12.7320249624
156 4 12.3262948043 16.686874614 1.087742364
157 4 3.6358452441 8.4376889931 1.9736459007
158 4 11.3057175563 2.9599256222 9.4810481391
159 4 9.5353261368 13.1720395428 13.799603691
160 4 7.2528770835 14.4700402389 6.639027648
161 4 11.1824579508 9.5761672771 -0.3380555931
162 4 4.3542959881 11.1704809466 1.5506229579
163 4 14.8219846454 7.4657270487 11.912028387
164 4 6.5057273074 11.6804033286 9.4991464623
165 4 11.4481535486 7.4187876305 12.8023888725
166 4 7.8453791581 7.7334511181 4.1291094432
167 4 0.787944046 1.4832102687 13.3626481335
168 4 6.5221089072 14.2366858299 3.2452585377
169 4 14.5746742742 4.7325007499 6.5502543075
170 4 8.6464601656 2.231426966 2.6729827611
171 4 5.0116982297 7.6458564558 13.3332248319
172 4 6.5023200319 18.0577519237 10.4367922833
173 4 2.8521635963 2.5686448659 10.296747969
174 4 7.9531975696 8.1591506961 8.2839824514
175 4 12.6130863658 11.8761982385 1.1764129884
176 4 10.8849342731 3.624362671 4.3506443997
177 4 15.3474000255 8.7487547275 4.4756887818
178 4 14.1386749871 15.1974969952 3.6362763273
179 4 -0.1362783334 9.978418555 6.7398978171
180 4 8.7981877984 17.4590826752 5.2285889181
181 4 0.7009164113 -0.5669299759 9.8856903951
182 4 -0.72654701 14.2703568377 3.9565501995
183 4 9.3333992939 16.9044331285 2.2193347806
184 4 2.6322189142 7.3387132202 10.0965086385
185 4 17.1017953816 4.5263841052 3.914142822
186 4 0.1013249059 14.5933928805 1.2787571124
187 4 14.0483783978 5.582940646 -0.3928882371
188 4 15.3346068399 12.5492506531 2.0911070448
189 4 15.419117739 1.9650528029 4.8120958449
190 4 5.1638103417 1.3417594384 12.3510847635
191 4 9.6203221282 13.9980639496 2.0389378335
192 4 1.7132012772 10.9028673578 10.9844056284
193 4 12.9664560943 8.3277270481 1.5448581753
194 4 14.2945080195 6.1270880241 3.6297992952
195 4 11.8981979576 9.0428947412 10.2884512134
196 4 5.4260287106 16.0572033345 12.8592576624
197 4 2.9352860003 5.4335068495 11.9133150858
198 4 11.2599684027 5.5697969887 10.3087919601
199 4 11.2722410788 10.4882519534 7.6328959506
200 4 15.3095145473 1.8506030935 12.6040280208
