# LAMMPS data file written by OVITO Basic 3.5.4
200 atoms
4 atom types
0.0 17.563496 xlo xhi
0.0 17.563496 ylo yhi
0.0 42.15 zlo zhi

Masses

1 183.84  # W
2 92.90638  # Nb
3 178.49  # Hf
4 91.224  # Zr

Atoms  # atomic

1 1 12.7722403299 14.9049175141 3.53020581
2 1 3.5761475049 -0.0233641918 1.5539731335
3 1 13.2844666938 1.6827562685 2.9615858715
4 1 17.3253623933 6.2467785887 10.0686491115
5 1 10.1103100264 0.6599761125 3.9522440655
6 1 7.0551349794 9.7912353997 0.606557046
7 1 14.8464907883 4.108805308 2.3003408865
8 1 5.1939695967 0.9627191469 4.3693436055
9 1 14.9020072428 7.7563219033 12.0182543685
10 1 7.6647925541 14.9803855731 12.1719939645
11 1 8.2161927151 13.7663036431 6.5183394375
12 1 2.7516260238 2.5481569622 11.799065517
13 1 18.7466229709 10.498764502 12.4088904525
14 1 4.4881798074 5.9769370758 2.1935867385
15 1 10.1304075836 6.1448240752 4.127661828
16 1 9.5320582659 -0.0906594293 10.974387279
17 1 17.4590748691 3.7164650846 1.5311303625
18 1 10.1486204021 15.7155671704 4.3034370225
19 1 0.7578023264 14.5275475365 6.130772295
20 1 18.5727794875 10.5538812113 5.104891875
21 1 15.3179603571 8.3338333625 9.275740593
22 1 13.8299333789 10.4249741081 10.7487317745
23 1 16.6048282247 9.3025420128 11.3486324925
24 1 5.961592025 4.3233553549 1.4354835825
25 1 1.836604063 11.3074644347 9.9862998135
26 1 16.9997128718 16.4731404688 8.335471881
27 1 1.4999032386 15.3185596236 9.3676423455
28 1 3.4674825065 2.3497879886 5.6990690445
29 1 3.3171050831 13.129727025 11.089026006
30 1 15.1338673443 4.6271337573 12.0094146705
31 1 4.8525817778 17.0943332207 6.82499544
32 1 16.1233044326 14.0133033025 8.154877677
33 1 13.7298239106 13.9808475427 6.9909260805
34 1 8.6776603998 4.7632633214 7.846738416
35 1 12.4219339433 11.6592487895 12.6359474445
36 1 10.9264084062 9.8497473084 3.5929920285
37 1 12.1328092925 8.6298516856 8.8566081585
38 1 2.1253363453 0.8866736001 3.8611739325
39 1 9.3811258361 4.2509055826 12.8621749245
40 1 4.8438323466 7.7252527815 6.536079951
41 1 6.728467829 11.4293895214 2.5393094685
42 1 5.9701566882 14.49948388 7.874208414
43 1 13.7796069375 2.6467644004 12.3461181435
44 1 9.0604899902 16.2677975578 6.848879316
45 1 9.4672862002 3.7982040143 5.1340516665
46 1 8.4967637677 16.8044387619 2.2476930075
47 1 15.0070406372 15.6863516999 10.4746884915
48 1 13.037557135 17.4169960697 4.556647668
49 1 10.5062195035 3.1930755384 2.823141246
50 1 17.4772181361 5.9231053118 3.616018995
51 2 9.5465866141 11.4849676237 1.6898234265
52 2 11.6770657267 4.9433490469 11.6412318915
53 2 16.4467493841 10.1011438135 7.213950582
54 2 7.5106366959 9.0148373707 10.660159872
55 2 12.5272023373 4.7914739843 3.377299941
56 2 0.1185160121 14.3336122918 3.6000277065
57 2 14.4027525745 2.9564415029 5.0896323105
58 2 12.2123136186 16.0857968844 6.3300140805
59 2 2.1156813403 13.0232571122 13.237043115
60 2 10.8851779237 10.061802285 6.899332866
61 2 8.7259826708 8.3796438779 5.043941289
62 2 -0.6440228378 16.2230889762 11.9110568025
63 2 3.605385808 15.3978927056 0.0832989375
64 2 7.6697660093 5.5670006883 3.489209877
65 2 11.6367013002 11.3638167359 1.21292526
66 2 12.1690262751 14.8171971602 12.3710304795
67 2 6.0582783679 13.156633774 13.5272808495
68 2 4.3165091041 4.3249005912 10.2319946925
69 2 1.9323045669 3.9085874252 8.394516444
70 2 15.1283070928 5.5347423421 4.9727866095
71 2 4.8904362051 13.5724918698 2.616949347
72 2 15.1842970591 11.5626890793 12.7716485265
73 2 18.8310101245 7.9787114166 -0.227855313
74 2 1.8187251266 1.909219459 1.2877668
75 2 14.5007978051 12.8966557447 3.5545655595
76 2 4.3739385746 9.0851865488 9.2530331235
77 2 10.5285762532 17.7364799259 8.5877215065
78 2 12.3985904764 15.2819713487 9.187997781
79 2 8.8666717184 13.5197328841 13.7172930495
80 2 7.7638594533 2.3801754712 9.6217318185
81 2 14.6519589116 5.9423020373 9.6161376705
82 2 10.7597048351 5.846450663 6.8400037905
83 2 1.664670961 3.8125345976 3.5196914925
84 2 17.1558518243 13.0823812845 11.043332877
85 2 4.9815918031 11.1697604788 0.2551385865
86 2 12.695527019 10.6972274403 5.0607460725
87 2 4.6590526011 4.0059687557 7.3463871465
88 2 11.2626532822 6.2694446316 9.265365792
89 2 13.1434193508 13.8558168786 1.2686260635
90 2 12.3834972861 7.158092193 11.721989184
91 2 16.2658859469 11.1983392726 9.553175265
92 2 2.7777297697 9.8956166615 6.9671922585
93 2 5.2361681791 10.1812256273 4.649596005
94 2 8.775689999 12.212401963 8.748960009
95 2 15.3625036662 6.9547933217 2.4405629775
96 2 7.5201020152 6.1175007201 6.1193770425
97 2 16.3666140016 11.979443616 5.0232839955
98 2 2.0808495907 13.4795974856 1.919530389
99 2 1.6344998607 1.5014033367 14.0175266565
100 2 1.9198956057 5.3784586663 10.97466294
101 3 3.2291634292 14.6987930275 7.120855563
102 3 3.9303925055 0.0809101083 13.493611851
103 3 16.6090065804 1.6760589562 13.1863311855
104 3 14.7746792734 -0.8511069938 2.5117939485
105 3 6.9329063955 -0.947193719 4.8279136875
106 3 16.9844770659 11.489680261 2.692579092
107 3 4.2415849865 2.7587826215 2.525789856
108 3 1.5457033914 10.8665172361 0.4139530425
109 3 16.4291303874 14.3501028338 1.4440560495
110 3 0.0596509015 8.3259401518 2.424101295
111 3 16.4073414656 2.2059624519 7.790041608
112 3 4.8352834906 6.9816728473 11.5068551625
113 3 11.5401881333 12.816335243 4.1449698825
114 3 7.1733792843 -0.5987295674 8.794997925
115 3 9.0940039507 1.207479285 6.676909002
116 3 14.5101277099 14.3721871737 12.827766615
117 3 7.7288322219 2.3334369008 3.3222743805
118 3 10.8644096165 13.6573860815 7.2186279675
119 3 6.0262817178 3.0516493508 12.432156831
120 3 8.5722154927 11.1704566958 4.9738015815
121 3 13.5477982969 7.1862940742 7.1176399395
122 3 10.1697015151 6.5096660111 13.6587829485
123 3 7.0484805221 13.4311808987 0.569460831
124 3 1.1759032806 16.6386549911 2.036642478
125 3 13.7341159021 10.921885279 7.895333151
126 3 9.1466382355 8.4061645812 8.584383648
127 3 6.5964619981 2.4989117296 6.17023734
128 3 15.4854744835 15.1567613614 4.8099788625
129 3 15.5088353382 9.5788539177 0.6256767075
130 3 4.6652447873 1.9896044188 9.431322144
131 3 3.2853534438 4.5470124256 12.8827222065
132 3 14.3571185723 16.8223213866 7.576301487
133 3 9.5168475758 15.0325384425 9.8210987895
134 3 2.9247464181 7.916171847 3.791701038
135 3 3.1906157707 6.5200021285 8.445810465
136 3 13.9102993701 3.0175029288 9.8592521265
137 3 6.348854993 19.5063168858 0.7188526545
138 3 10.8859872496 2.4925867634 11.5843808145
139 3 3.4381419838 10.8904710345 2.376148926
140 3 7.937230303 14.0642116226 3.51731634
141 3 13.399724853 9.531355726 13.458130824
142 3 10.0482002355 14.1553217312 1.6113257955
143 3 13.5054932798 3.9040630687 7.3476659775
144 3 4.0762835094 3.7184968299 -0.2729494905
145 3 3.4557880283 10.4766169335 12.8584463355
146 3 7.9259141425 10.4957186405 13.417187157
147 3 0.3769444141 4.4417271707 12.748669611
148 3 14.44838886 13.1894290362 10.072291293
149 3 16.5972471173 5.2593748264 7.5552252225
150 3 9.1316328627 5.716366103 10.6382608395
151 4 16.7796240009 1.7582085204 2.895009525
152 4 -0.64427101 14.2502387276 13.913659362
153 4 5.8062506308 8.2854598062 3.0840577545
154 4 7.1275566501 5.8389303253 12.887703915
155 4 10.6422905811 2.9996945976 8.71793508
156 4 11.5504099124 2.2184918987 5.510756754
157 4 8.9991726642 4.5788369535 1.0532109015
158 4 9.6660069706 11.8827978447 11.893264866
159 4 13.7835817323 10.8006725677 2.156592948
160 4 3.9768463717 16.7638035062 9.8171965425
161 4 3.7197408523 7.9459028061 0.23981664
162 4 2.3077172685 12.8473871527 4.849152651
163 4 12.7133720579 3.2545741196 0.825574347
164 4 1.2151143123 12.3390820149 7.901417925
165 4 12.8988025309 7.2421275498 1.104375522
166 4 6.7734193138 9.4707920497 7.7265219795
167 4 8.3527699727 1.9300829603 12.550083258
168 4 5.6584511774 15.3784688841 13.877159148
169 4 10.4236392824 9.0819959641 11.3488162665
170 4 6.5539170636 -0.0661534346 11.9882444115
171 4 1.1157476043 7.5430336181 12.725850444
172 4 9.2107897828 16.9142387135 13.642891134
173 4 6.386422784 5.9969512064 9.054952149
174 4 15.0285385319 9.2580993426 4.870165269
175 4 5.6223032194 12.6867609025 5.5578952065
176 4 2.1798945355 17.8940736628 7.6710761835
177 4 -0.2625841008 7.9487668854 5.8812539895
178 4 8.9492092602 8.1424156694 2.447834274
179 4 2.2864380393 5.4098783556 5.9749500675
180 4 12.6664861297 0.8082438087 9.594746124
181 4 4.9307612893 5.5311428792 4.9189593735
182 4 2.3302654603 15.4138178787 12.2483630205
183 4 14.2012060132 16.9579391504 12.880858755
184 4 16.7061369286 6.005020579 -0.0682260975
185 4 15.5513491854 0.4547665085 9.9652829805
186 4 11.6996927786 -0.6599639937 1.694005128
187 4 11.3291920599 11.5618419919 9.408808986
188 4 10.2404945227 10.0362261465 14.008957983
189 4 1.9162798088 5.4425691151 1.1834501865
190 4 3.2853327189 15.7625189617 4.0455709095
191 4 6.0864203576 16.153122331 1.6329706635
192 4 4.750211185 11.7329538248 8.2910849805
193 4 0.8829085134 8.641064397 9.248690409
194 4 12.7889453223 7.6009562715 4.218863469
195 4 17.0551086651 17.3809613962 5.138651496
196 4 6.5356260876 11.6283665432 10.8244921845
197 4 0.9770383139 3.0331490179 5.7211657605
198 4 5.8546580847 14.3912867731 10.541979702
199 4 1.0154333456 0.6362643391 10.960793904
200 4 16.9460288168 3.4784329949 10.291097001
