# LAMMPS data file written by OVITO Basic 3.5.4
200 atoms
4 atom types
0.0 17.510057 xlo xhi
0.0 17.510057 ylo yhi
0.0 42.024 zlo zhi

Masses

1 183.84  # W
2 92.90638  # Nb
3 178.49  # Hf
4 91.224  # Zr

Atoms  # atomic

1 1 14.7829410906 -0.1572473159 12.5301178982
2 1 4.711201305 17.5442434602 9.4616321592
3 1 13.2124751096 2.5824628771 11.172838513
4 1 0.1950625603 7.3303407476 12.6117234634
5 1 9.6823663717 3.7974598175 3.9453341491
6 1 2.2721624293 5.7712403695 4.7605514215
7 1 10.9442685524 8.8196833349 1.4941809701
8 1 8.2377654821 1.4720324952 12.6829129598
9 1 14.186931319 12.4982798075 9.5355931385
10 1 9.9109589402 15.6351641447 4.0118320862
11 1 9.1605994169 8.2717101284 6.1326186322
12 1 6.7646541923 4.4761266886 9.4430777227
13 1 17.1287763843 9.2292822653 1.8858597787
14 1 3.9793175185 6.6979517314 0.2282504143
15 1 10.8983978063 11.1789885901 2.835725309
16 1 10.30943128 13.4152517255 1.9031816513
17 1 13.3172458353 0.137820608 1.3049964864
18 1 9.7516291532 1.7136709316 7.6164028646
19 1 14.2701678264 15.3471569762 6.0846486564
20 1 15.3771438243 6.412283206 2.2237730818
21 1 14.021739165 11.2206761837 3.9667222639
22 1 13.5392533966 15.1513654722 8.6460690293
23 1 10.3782097333 9.6241470081 11.979254699
24 1 2.6031322737 3.2918099946 6.2247041424
25 1 6.7699860046 16.2003334529 4.0841978345
26 1 0.8040556889 16.5465239143 4.1683055086
27 1 1.4794115834 1.3650681096 4.9812106205
28 1 3.1800891772 0.7796697827 6.9828633288
29 1 14.8874043397 9.9599392973 10.6526150122
30 1 15.7220149029 3.5720117051 12.2817018473
31 1 0.0788526895 9.7960591718 11.8576763254
32 1 4.1060441046 15.2518110387 10.7369475146
33 1 13.005497831 0.9299143015 6.496353582
34 1 13.4138897933 -0.0023246352 10.1380546656
35 1 15.6720270171 10.6701319755 8.0599918193
36 1 12.9809026797 12.5577462374 1.6329450586
37 1 14.5075936933 2.9763589636 6.2435926697
38 1 4.0533200973 12.6060934309 7.2295337028
39 1 9.7563761297 5.6668489116 1.9006850054
40 1 2.7345013012 12.6906428423 9.480647599
41 1 3.7960371253 11.7310342857 4.4854992986
42 1 6.9337791051 0.7398198697 9.0774163927
43 1 -0.2757214121 -0.0245112782 12.8369792474
44 1 1.0964366946 15.4078589157 12.3166834654
45 1 13.1223454181 2.1799893142 3.9007118052
46 1 10.8846082862 2.2016473286 2.505082158
47 1 1.6646608073 14.677818763 10.1375129762
48 1 -1.4326287384 15.0519239324 12.29128458
49 1 8.0090508685 6.121698382 0.2275813922
50 1 8.8401263264 8.4586019708 0.561670091
51 2 6.2504029042 14.0950138507 11.8404708593
52 2 12.3858906311 6.906537834 6.8746864087
53 2 0.0733382472 7.2817517402 3.5353467444
54 2 5.6685519398 7.6562332007 9.3428391362
55 2 12.1962421805 15.0989060418 1.4524776132
56 2 17.4123636643 13.8895377093 3.0945624715
57 2 12.8201530022 16.7551781311 4.0401461765
58 2 1.9638378163 10.3053750753 6.8980248574
59 2 2.0753310031 9.8853088079 0.5172339134
60 2 14.6628504659 8.0875354966 8.5523223103
61 2 6.1673329174 11.4553230294 4.6915232194
62 2 3.8485718489 15.098239434 13.4375652434
63 2 0.0128045794 4.4612203771 2.258567693
64 2 6.9127497018 8.6954797729 4.8501747456
65 2 15.936013014 11.5601958387 2.1152301326
66 2 5.2457714384 2.9190826916 2.4298793695
67 2 2.2158716234 4.9728957607 0.858487284
68 2 2.3760245581 2.9622241451 9.6728527678
69 2 1.132427216 9.9640327984 9.5231737858
70 2 2.5903592124 0.093976651 2.5469107464
71 2 3.7939275137 10.128492857 9.6549139829
72 2 12.0956094315 11.728287308 10.5661687025
73 2 13.2507802854 7.4086401192 13.3184511571
74 2 3.768402053 15.6453525465 4.0901828926
75 2 15.4124694888 14.514994494 0.7725713172
76 2 10.6693492759 6.4781208452 4.6895548152
77 2 12.8052915164 2.8224942405 8.4773380466
78 2 8.8454383524 10.9378392096 5.1024771761
79 2 7.5180051337 9.5746499292 8.087424246
80 2 9.5632388001 2.0884938382 10.4397424402
81 2 14.8856333725 3.8277368072 3.65004705
82 2 4.2532171843 5.4026281049 2.660549946
83 2 2.4725753626 3.0878815672 2.8740268231
84 2 0.4555903209 15.8880165469 1.5067272353
85 2 0.0197203515 6.9453373187 0.5499353093
86 2 11.0868849899 12.9103896801 6.8101329221
87 2 2.3553924579 17.2161186499 9.6487381358
88 2 15.4771385068 3.0248879114 9.7374676094
89 2 15.5594872543 16.6362242592 2.431370381
90 2 14.37920943 9.1378676858 6.2482926338
91 2 11.5618232234 10.6150209972 5.4632099314
92 2 18.5371092182 17.0699149269 7.4835343231
93 2 2.6120102228 7.8497356149 2.1362278445
94 2 9.7143187238 10.9763863744 9.1191218508
95 2 7.3959752701 6.5474144444 10.8014846119
96 2 0.03510889 4.9586609599 10.8048893964
97 2 2.3452679679 13.7973598665 2.6733231408
98 2 16.9413939101 15.1456668242 5.9050935521
99 2 5.1385617369 8.1754219747 11.9447748475
100 2 12.1766916765 8.1979709008 10.8738390137
101 3 1.348927339 5.1056403783 7.4960074666
102 3 7.267256915 1.3204643912 0.9075040776
103 3 5.3108318062 5.2605371442 11.8334171309
104 3 -0.06373223 3.3959699695 -0.5224911158
105 3 7.8956186181 2.9394055642 6.4188083758
106 3 5.3881768798 13.5002854651 2.7569349317
107 3 8.8163826891 3.4068976459 0.8097280975
108 3 4.1690044912 4.9768973341 8.9634809239
109 3 6.0280078453 17.1800903068 6.5323185617
110 3 15.1839315517 6.7474393549 11.2360648817
111 3 11.6546536661 17.5223453829 12.3048995155
112 3 12.2235857104 8.7402085131 3.9812058355
113 3 9.3781265049 15.478637893 12.288176485
114 3 7.0952426676 5.3422501015 4.1379402269
115 3 12.3714661964 4.485900102 5.4861705842
116 3 3.3541937751 0.6468593273 12.4475075393
117 3 4.5797132091 0.9765299255 4.204783181
118 3 7.551458798 10.2250121434 11.1518508869
119 3 7.8008941125 1.460600179 3.5109013836
120 3 11.7753825324 13.5549844318 4.1472775394
121 3 9.9512893292 7.1028000082 12.232071083
122 3 4.9707257394 6.5237937277 5.9419208642
123 3 10.1713345384 17.2251284497 1.9141419307
124 3 17.2870359566 1.3865981255 2.7590415948
125 3 9.0011283238 8.5247514641 3.405171521
126 3 6.1615752605 7.4159854131 1.8280292916
127 3 5.1329684994 2.2169343087 7.7798972366
128 3 14.4856947405 13.9724417007 3.5031756914
129 3 14.8386073128 12.3988065745 12.7798039145
130 3 2.8892523834 7.5379825328 8.1982125374
131 3 5.6374808689 2.4162962884 11.0393698687
132 3 11.6442996192 15.9300000604 6.7903148239
133 3 7.6870321653 15.5937024309 1.6989992222
134 3 2.7703370337 8.3750902053 4.9364790142
135 3 15.5529539018 9.0329617825 3.8962526386
136 3 17.1508535895 0.3990463195 10.1965424081
137 3 2.2314807886 2.0213814668 -0.0287519803
138 3 5.8126786198 1.2655794677 13.7090276762
139 3 7.832504318 11.2132596239 2.1086558981
140 3 8.4622431871 13.7310121593 10.3030488742
141 3 12.8064244171 10.2427781974 12.9242895706
142 3 10.2485496873 12.1737715243 12.265322573
143 3 -0.2464009968 3.9314569295 5.2716683215
144 3 6.619031453 16.9676733539 11.8824683842
145 3 10.834553687 11.6163999698 -0.0954974388
146 3 3.3786989248 13.103444012 12.2005463592
147 3 12.7279070452 5.4771270938 9.2330342064
148 3 9.6835642347 8.0750588806 9.4248527544
149 3 0.9309220053 2.7352309453 12.27190101
150 3 16.2716268757 5.842178163 14.114434465
151 4 15.1582463993 0.2192393964 8.0981378446
152 4 14.6277935807 15.4137099012 14.41307634
153 4 -0.1416045314 7.5216792689 9.8091004591
154 4 2.5003456126 5.499329671 11.4431520096
155 4 16.1420640105 15.0132743338 9.273465917
156 4 16.6480622835 17.809256597 -0.0289969802
157 4 6.1617149908 4.6196977745 0.131452753
158 4 12.4892754358 9.9959588854 8.0730373296
159 4 7.6307282268 7.9304377166 13.6420473036
160 4 6.4800877499 15.5638815782 9.0305213909
161 4 5.2586919344 3.4261447005 5.6258713877
162 4 17.0247864321 12.0899156863 5.2081406407
163 4 10.1847512693 4.6338394218 7.4840247432
164 4 17.7947948658 12.460093525 11.6326676424
165 4 9.6456989116 5.0828997171 10.0533326006
166 4 4.8773083596 9.7135938074 6.9517592652
167 4 8.800904324 13.679924817 4.6288015589
168 4 5.0147843697 17.0233068323 1.5329577756
169 4 7.67874413 6.2121101605 7.538622324
170 4 11.174680941 14.6359506408 9.3978544356
171 4 15.5420647475 5.3658512069 7.8557123148
172 4 8.0982688114 4.4207873792 12.726346865
173 4 10.7153793636 2.7211814009 13.1040552151
174 4 15.6469878107 9.1239373849 13.5272831215
175 4 14.1654293192 12.5963236946 6.3367745861
176 4 16.1465413321 0.8242461854 5.4572463055
177 4 14.635632308 6.4298232052 5.3293739974
178 4 8.174654684 12.7451206569 7.4287224199
179 4 3.8130966486 15.6212884751 7.6218500155
180 4 10.821093356 0.9916586147 4.7360089853
181 4 17.4700055462 7.7933576089 6.6349848746
182 4 5.7178047534 11.1663310952 12.7594386638
183 4 13.2242784639 14.5813094573 11.7599801909
184 4 13.2000694093 4.6113477536 12.9273732917
185 4 13.8384524682 2.0554665438 13.945149606
186 4 14.6761521558 2.9514855774 1.2124768682
187 4 2.8530454377 10.0907683147 12.5282209349
188 4 14.275776998 8.9350518474 1.3034731164
189 4 3.506579949 3.0246180815 13.5982498908
190 4 5.9257776538 13.9298929626 5.8232055857
191 4 8.6343782539 16.4029116798 6.4612643825
192 4 0.6018024486 12.3869221486 0.8267637866
193 4 1.5846918517 10.542468076 3.3070240488
194 4 12.667626923 5.2397302936 2.4531619262
195 4 1.8785780219 13.8364353097 5.5460257877
196 4 5.5166143736 12.530725768 9.472503768
197 4 0.2494260342 2.3214991161 7.976722524
198 4 4.8790353765 10.1430620999 2.7198395064
199 4 10.092306223 17.195344368 9.7383496932
200 4 17.8517934282 12.593279221 8.3036125116
