# LAMMPS data file written by OVITO Basic 3.5.4
200 atoms
4 atom types
0.0 17.620497 xlo xhi
0.0 17.620497 ylo yhi
0.0 42.27 zlo zhi

Masses

1 183.84  # W
2 92.90638  # Nb
3 178.49  # Hf
4 91.224  # Zr

Atoms  # atomic

1 1 3.3467404637 1.0182872882 2.9115250521
2 1 4.1025743255 3.7271856716 3.8809841205
3 1 7.491634113 16.2214598455 1.8966303834
4 1 4.3946969685 5.2769217743 10.4040013308
5 1 5.4052042786 3.7401355035 1.335651687
6 1 9.3375265429 5.1758185342 12.2246678745
7 1 13.5721090506 5.5207506877 13.351123218
8 1 9.1052757057 11.2408251423 1.1898130011
9 1 16.7137143313 8.5543065522 10.727327097
10 1 7.5197331672 15.933836244 11.9360128077
11 1 3.9084859607 13.077314394 7.4163289872
12 1 16.0490848667 2.7702980624 9.8199444825
13 1 16.520630511 13.1717981419 12.7880458161
14 1 8.4825380917 8.0954055527 10.5992329344
15 1 16.9900551761 10.2890053643 1.7760218151
16 1 8.7048282381 2.8114029816 7.2118639248
17 1 1.1246084861 12.8617501674 2.1349397667
18 1 10.4121185434 0.7218626009 6.017591016
19 1 6.1889875967 2.0898991341 3.2985195831
20 1 16.6685965201 11.3843569534 4.8431841618
21 1 11.5137821469 3.3573538176 7.1176563531
22 1 16.532364881 11.1251067572 9.687265293
23 1 4.9145629493 17.1530225715 1.3615382577
24 1 5.5135782644 3.3787937335 12.4516408665
25 1 8.2425869211 14.2156050197 10.1819223594
26 1 13.9938019038 3.1345680066 2.1720976329
27 1 1.1854873032 14.5490859646 7.230105966
28 1 15.6280911948 8.6042222485 8.5304178195
29 1 17.30441471 12.5893046859 0.2551700409
30 1 0.5176105572 2.4113565566 12.7589336217
31 1 14.4975687413 9.0866966536 2.2133180688
32 1 16.9541084812 1.4911833674 6.6102468504
33 1 9.0328899992 12.9960005578 4.9007926767
34 1 5.717151919 6.9513503813 0.9784410207
35 1 1.7497544696 12.3948494623 9.0483394485
36 1 0.8883824647 9.906059984 3.8401166391
37 1 8.2713567875 3.5310927991 2.3516529843
38 1 16.5737788637 1.6292915895 2.6374992096
39 1 6.3859207907 9.5780688812 11.9469024051
40 1 6.1995822729 3.649377962 5.396750391
41 1 7.8112438503 10.7633063257 13.3804518348
42 1 1.6450747972 1.8249330249 7.8776083935
43 1 15.7958892495 3.2477425205 0.3532153059
44 1 1.9680091698 16.7197560473 6.2542954074
45 1 4.4519468443 16.9759482062 9.3721568148
46 1 10.6812686396 11.0446311281 3.5067623154
47 1 16.6239611581 17.3003528331 4.3203055299
48 1 12.3420004818 1.5937131629 5.0830845879
49 1 13.4419469679 13.9309696784 12.4912732185
50 1 14.2410506033 0.1333517451 3.5904319761
51 2 11.8165762914 13.8439940242 4.0377284664
52 2 15.0418657175 14.4759751747 7.1758997634
53 2 4.4298396401 6.1643055093 5.3561432928
54 2 13.4519754976 2.9222681533 10.1385808149
55 2 -0.4165645837 6.4102270329 8.7138941361
56 2 14.885433412 13.0934438445 10.3025402271
57 2 4.5851750697 15.8610200688 6.9222104406
58 2 17.3838003352 12.5802865155 7.4632275522
59 2 3.4813596511 6.1182767184 13.1671924989
60 2 6.5812119307 5.5783503304 8.526438099
61 2 9.1349183154 7.1521096901 8.5499013306
62 2 12.3287447582 1.116897228 1.7704772592
63 2 0.9962461609 1.0158604171 1.2365310732
64 2 3.5998118563 8.916157202 12.6533148408
65 2 14.3117179589 10.7153241266 10.7696698014
66 2 7.1952795553 12.9131817551 0.0765311031
67 2 1.4494735365 7.1618874801 6.8368115142
68 2 7.7276943255 5.3978667513 0.2916000177
69 2 7.676714175 8.7842478708 1.9497346071
70 2 1.7163942875 5.4088864339 4.553421621
71 2 3.2806620141 8.9442157291 6.111793938
72 2 6.0668812528 9.798053738 0.5305083669
73 2 1.5373961163 13.8740086025 11.6517009834
74 2 1.4116414485 1.4784851562 5.0635596522
75 2 12.3495120997 13.2441545984 6.7253332659
76 2 11.7438022292 6.0271043904 9.1640320158
77 2 13.8870107673 16.9766214854 6.3149148144
78 2 6.556702348 11.0392910603 2.6543011119
79 2 13.108082601 1.0437476729 11.5093825431
80 2 12.748973348 13.8356154778 1.5913446078
81 2 11.1929407369 8.709459081 1.719010998
82 2 9.7561694642 6.3638167583 3.338602956
83 2 11.478097645 15.9907913289 6.1942424184
84 2 3.9929373025 12.3056185607 10.7863267176
85 2 11.1878737868 13.8548905395 11.0994535782
86 2 9.2902139226 12.9942104915 7.8410702055
87 2 18.1565972733 4.3527334025 7.122380871
88 2 10.4640628875 5.7549096486 1.0747929495
89 2 16.7910878719 4.9543350541 11.8535250162
90 2 16.3071590709 0.8833350734 12.0678263076
91 2 13.7597218828 11.8428725926 4.4005082052
92 2 3.3830593035 2.4385095663 0.7237630026
93 2 2.2704468517 11.6176630821 5.731740141
94 2 11.5530702166 10.865118086 12.0262584123
95 2 15.174465596 15.1080162349 13.9355664141
96 2 0.7930109961 7.0411218798 11.8033568667
97 2 12.5507727116 15.9330549512 8.8164098763
98 2 16.7822672273 16.243459917 6.7724127465
99 2 7.355198781 16.737210383 14.1286321029
100 2 6.172031921 2.1659324596 7.7224948242
101 3 2.6196301263 15.3172006081 9.7598065308
102 3 5.5601472997 14.2356189088 9.9496229247
103 3 15.6618661635 0.5840858204 0.1698167661
104 3 11.5181113268 16.5437558275 3.299731464
105 3 5.5440321218 16.4601543222 4.2129004188
106 3 1.4145442491 9.2740124042 0.8882397996
107 3 0.9955878591 3.5418217435 2.7909380415
108 3 4.4033308358 10.2806613542 8.1450101043
109 3 0.9242620255 7.355226269 2.5798847769
110 3 5.6922065814 7.5831590272 10.4114598723
111 3 14.9851543241 0.0807755299 9.1795366518
112 3 16.263398919 6.3780999331 6.1286110575
113 3 7.1986360838 1.1852599988 0.8713161597
114 3 4.308952987 1.2953045839 5.8382068581
115 3 7.0976470245 0.6461300572 6.0120891528
116 3 2.2775311726 16.352358465 0.4472457663
117 3 8.5771231575 7.889459122 13.0614997455
118 3 9.6494477525 8.2914795713 5.6119165266
119 3 4.0642515066 14.2139153903 1.9241718246
120 3 8.3456987216 10.7462896832 5.2904755797
121 3 15.9263033053 7.5100369601 0.8851857921
122 3 6.5752784045 5.744855393 3.0300962064
123 3 8.67734643 0.89029887 9.1964717046
124 3 9.8753076354 16.0617395552 8.6704883412
125 3 16.895462181 9.6519428149 12.8966987376
126 3 13.927397475 7.7527171933 6.2329507482
127 3 9.197971678 11.7681007184 11.1219374139
128 3 7.0539631694 8.6222971781 7.0694981421
129 3 12.0310309553 12.1264350219 9.5585552565
130 3 2.4887242824 0.2314688396 11.5946829804
131 3 7.6673698492 5.9827109579 5.5990875816
132 3 14.3383802377 2.2432829174 7.2416089011
133 3 4.7784891899 0.5272019223 14.0850690636
134 3 17.7234584977 4.832326504 0.6249928071
135 3 14.6196705039 11.2501927271 7.3847714733
136 3 9.9419286201 1.811556777 11.5241051841
137 3 14.7690262416 15.980692141 11.4446481516
138 3 10.0439269815 2.696836096 0.339550683
139 3 5.9806972875 12.5162856987 12.9696719748
140 3 5.4849213453 11.5356151761 5.7464902575
141 3 11.3507072664 3.5139394214 2.4386945229
142 3 10.3409842446 16.5509314225 11.9138616369
143 3 12.4246106579 8.8678601246 4.0254748161
144 3 2.8272238973 12.1904305525 13.6042896609
145 3 14.3792215543 11.4138037993 13.4414465994
146 3 12.0602541972 4.3184925479 12.0120916218
147 3 3.2815481489 3.6038037799 6.6775791561
148 3 2.0089311883 16.4258264224 3.1295503305
149 3 11.2812185459 6.0497558917 6.4659138219
150 3 4.2108411787 6.5857837448 7.8333140832
151 4 3.9759231268 13.7839123583 4.7290336041
152 4 17.319813791 14.3738356732 9.8613128634
153 4 3.3278934039 5.5599987589 1.879290384
154 4 7.5281036081 3.7381477352 10.7753944275
155 4 0.1549356205 16.1168582319 12.6908603229
156 4 13.7142245261 16.037551018 0.9333444258
157 4 3.8783723551 8.4751795959 2.3781786774
158 4 11.8677504437 0.4846632233 8.2679515539
159 4 9.3369552864 13.6010204097 13.2507476079
160 4 6.9227773358 14.2129668789 6.5035003059
161 4 13.1291103735 8.0095852745 0.1228848078
162 4 3.6112889671 11.2481327148 3.1003751538
163 4 14.4581864019 5.8747827707 10.7838775938
164 4 6.5634030706 11.2774135757 9.0990402
165 4 11.0458811262 7.2357120764 11.2500108642
166 4 6.0461616628 8.5744658104 4.3390235313
167 4 3.1975600499 3.0309314676 12.7654880079
168 4 6.4002214099 13.9190478263 2.747013171
169 4 14.2826985862 5.0903591238 7.8988727397
170 4 9.4755552965 1.3641416985 3.3618421566
171 4 6.5076766629 5.8307466818 12.9082363341
172 4 6.6608317322 16.5927903227 8.4981011364
173 4 4.3572162331 2.6555454568 9.6965668065
174 4 9.8963560239 9.7799826849 8.577153645
175 4 12.4928259452 11.1740401108 1.7665609437
176 4 9.728507046 3.6265240012 4.7962057065
177 4 15.5454552928 8.6974158237 4.2516666585
178 4 14.6238543147 14.752652571 3.9546814428
179 4 0.9517388999 9.7519484742 7.6916952114
180 4 9.2086805351 15.8860283115 4.1499865962
181 4 0.075664 0.2625080498 9.285269139
182 4 0.0077070292 14.101105973 4.4893098666
183 4 9.9152925958 16.8304087157 0.9651631683
184 4 2.8698672621 8.0142310947 10.0431740433
185 4 15.7574802663 5.1968383775 2.5253501364
186 4 -1.0553289208 16.0693528434 2.1385995033
187 4 13.3771341986 4.6167347894 0.0162058953
188 4 15.3706599626 12.6953162916 2.1428827224
189 4 16.0516053026 3.3801311293 4.8816206955
190 4 6.3491839927 0.9379351788 10.9260920499
191 4 9.3438960001 13.7263204687 2.2250154459
192 4 1.5690960952 10.3989789388 11.1568469388
193 4 12.9036501234 6.2403989208 2.6252768391
194 4 13.4042537293 4.372146785 4.8606226503
195 4 13.1055512404 8.8293038341 9.1350280326
196 4 4.8846803485 15.8518130067 12.6140151537
197 4 1.9286740534 4.4919883665 9.58341213
198 4 10.040285882 3.9209566913 9.1513552428
199 4 11.8443461947 10.3663572317 6.3714302271
200 4 14.8126850757 3.1371777784 13.1520243321
