# LAMMPS data file written by OVITO Basic 3.5.4
200 atoms
4 atom types
0.0 17.620497 xlo xhi
0.0 17.620497 ylo yhi
0.0 42.27 zlo zhi

Masses

1 183.84  # W
2 92.90638  # Nb
3 178.49  # Hf
4 91.224  # Zr

Atoms  # atomic

1 1 3.6943724297 0.8295811042 4.2321675075
2 1 4.0267165001 3.3484477136 4.6797095865
3 1 7.4637491479 16.957165285 3.4192528479
4 1 5.0541502359 5.5517884884 10.1904253926
5 1 6.1213400418 2.2084475472 2.9214479346
6 1 6.9877795254 5.7042893086 11.4191170716
7 1 13.9951847604 3.4341536348 11.8939051245
8 1 9.9236884102 11.2847659043 1.6095938349
9 1 15.6896794132 8.5704490419 9.8068648764
10 1 8.8655777416 16.3654369264 11.5541819799
11 1 4.1847284832 11.7886825161 8.0872185603
12 1 16.5376314713 2.2062738827 8.7881498451
13 1 14.533705209 12.6618438669 12.6581970258
14 1 9.7539980904 6.8874803086 10.7553846549
15 1 16.7628133176 10.1193538095 1.8428380041
16 1 9.542679875 2.0638496961 5.6340740379
17 1 1.6742027122 12.1945962142 2.5099718877
18 1 10.8132119784 0.1753803307 7.1459540046
19 1 6.30528041 1.6051654288 5.5481103843
20 1 16.8940252295 11.4570605336 3.7739509854
21 1 12.2130644333 5.7555207274 6.3265306104
22 1 15.7765866999 11.2445187509 9.8400041337
23 1 4.678048128 16.4601631325 2.5309335807
24 1 1.9591159288 2.0556302629 13.0656946203
25 1 7.9848311193 13.9210502196 9.977520702
26 1 15.1919972857 4.2290993615 1.034976723
27 1 2.4339289419 13.9870551917 6.1938687516
28 1 16.6873612922 6.5167029387 8.0917642761
29 1 17.8969268283 12.6667582235 0.1314191208
30 1 -0.3098478057 1.50261907 11.2022001126
31 1 14.6828049209 11.2066027893 1.9292624007
32 1 17.090235807 0.3862224403 7.0237738377
33 1 9.1041717815 14.5190026663 4.4951752518
34 1 7.8549569554 6.8365475572 0.7667697687
35 1 1.4922152237 12.484622899 8.0277907446
36 1 0.6924950472 8.9149038561 4.6580762232
37 1 9.1418396466 2.4894016143 0.1280463975
38 1 16.7912742967 1.8483027376 1.5569279511
39 1 7.3753333705 8.8093972538 10.7127502875
40 1 6.1146550015 4.4401599652 7.6273082793
41 1 7.9811153088 10.9968933252 12.3849134445
42 1 1.0917238811 1.8084020032 8.1960955128
43 1 17.5595071737 5.106341267 0.4069721784
44 1 1.9580932352 16.8038893391 7.0073608194
45 1 3.364074099 17.2872303204 9.7595093727
46 1 10.780263411 11.6673407255 4.4781150798
47 1 17.1612532819 16.8341227641 2.7345067461
48 1 12.6323468025 3.528743282 4.9193517429
49 1 11.6472470156 12.5608516359 12.6699286416
50 1 14.8059288485 0.6983364181 2.2313808852
51 2 12.0245529558 14.3215678167 4.2629485215
52 2 15.0447612937 13.4125480497 5.1766606458
53 2 4.571457689 5.6927709659 4.876880115
54 2 15.050434389 4.6504241225 9.8740158438
55 2 0.7372828264 4.3320152221 9.7999558449
56 2 15.2368042713 14.3653362502 8.9813981403
57 2 4.5521549631 15.2848000382 8.0615657427
58 2 16.7225681024 11.825517284 7.2401903199
59 2 2.1847862152 9.6935423414 11.638135695
60 2 7.8079874062 5.8762502057 8.9538233058
61 2 10.8395470446 7.0312246228 8.203220544
62 2 12.0255079867 2.2845552313 1.4417971521
63 2 1.2460945885 0.4528367292 1.0282114095
64 2 5.6919227152 9.9619500861 12.3571830564
65 2 13.717338949 9.9305937068 11.4675728634
66 2 7.1727048794 11.7441035397 0.8613095826
67 2 1.9317010786 6.7934390113 7.7041073742
68 2 6.9574483067 3.8969917581 0.9991727649
69 2 7.3638974917 9.4611523023 -0.0624002421
70 2 1.8067396855 4.7244747897 5.4297767874
71 2 2.3956098233 7.5173679679 5.1064332678
72 2 7.3561161041 9.2284614812 2.7973098213
73 2 3.0302863812 14.3749110521 12.2611578747
74 2 0.7430530106 1.5167286829 4.9836334227
75 2 13.1856297035 13.6039484077 6.8671436208
76 2 13.4884626131 7.0074554534 9.3226248288
77 2 15.5009866207 16.2580280153 4.8062460996
78 2 7.7676953206 11.9842608701 3.5438635398
79 2 14.0690107663 2.0433893036 9.7835009793
80 2 15.837826561 16.6268258985 0.6764565321
81 2 10.1982656195 8.7466020314 2.4685544736
82 2 9.3137052168 5.2219532243 1.2139170459
83 2 11.3626655929 16.2924096577 5.6010611679
84 2 3.4472752665 12.153364075 11.087526675
85 2 10.7390943532 14.6859635712 11.6490447366
86 2 10.1130046159 13.0699063846 8.1733069104
87 2 17.4012781062 3.9314685512 6.9543550848
88 2 10.3151772647 7.6538989793 0.2913992352
89 2 16.5562716665 4.9385615376 11.6680729998
90 2 15.213622393 -0.5868425472 9.3308214045
91 2 13.5230090071 11.4509305389 4.9352304684
92 2 3.7994815136 1.8054768245 1.6110868113
93 2 1.8825901103 11.4034973944 5.0711686749
94 2 10.3268434434 10.1016328757 13.1915421324
95 2 12.4334418748 15.0353380282 13.616185707
96 2 0.2097512246 7.5923424778 10.4673382761
97 2 11.2858904444 15.9389809005 8.6816835507
98 2 17.4312068727 14.9803811077 7.716265917
99 2 7.8560864293 15.6541519099 14.1896357442
100 2 6.0238275066 3.150777278 10.6202960754
101 3 2.5449236242 14.6563237808 9.4217784132
102 3 5.8587653865 15.4692175695 10.4240660544
103 3 14.6272113718 1.5042921361 -0.3698045901
104 3 11.9279077014 18.7342042132 4.3423484895
105 3 5.1763115557 16.0285342572 5.4973136799
106 3 1.7794737285 10.8148816967 0.2575735131
107 3 1.7881897073 3.6795157076 2.6012822736
108 3 2.9263004278 9.7413974968 7.149412536
109 3 1.0325466754 6.5450120292 2.791138824
110 3 4.447457494 9.5999542433 9.9243797034
111 3 13.6533157541 -1.2858212324 7.1214234555
112 3 17.0910237956 6.5549801206 5.3196841497
113 3 6.808134682 0.0822454318 1.1781439449
114 3 3.5478435483 1.8738878755 6.7326037059
115 3 5.9741888045 0.0258693565 8.6216419746
116 3 3.6247446834 16.4642338197 0.1123012452
117 3 8.418243365 8.1114759746 13.0619727468
118 3 8.9308794797 9.3703293887 5.2160220471
119 3 3.4253793321 13.4938731629 1.5243762468
120 3 8.2919544437 11.2418244007 7.6889193405
121 3 16.3802940009 7.0421868626 1.2779548278
122 3 7.6013805593 3.6792875222 4.861882719
123 3 7.2981374445 2.0598501957 8.1818944836
124 3 8.5351835554 16.3096148395 8.6829203709
125 3 17.0816114547 9.7635117491 12.2952583518
126 3 14.3766119587 7.5425402575 6.7774990956
127 3 9.6351480143 11.7493303077 10.7182792035
128 3 5.9355694326 9.8937941799 7.24076646
129 3 12.7326944757 12.731714776 9.4240166097
130 3 2.3008469666 -0.3087139267 12.0097253472
131 3 9.1475331816 5.0390528179 6.7621466316
132 3 12.9758145165 1.860342647 7.3914302664
133 3 2.9519562239 -0.0903172053 14.6514562065
134 3 19.9363270276 6.0406846837 0.4884137874
135 3 13.9084691847 10.3303758244 7.9693249941
136 3 8.9958527717 4.0743565092 10.8763715397
137 3 13.4602913149 15.5864662948 10.9643447091
138 3 9.930485517 -0.0255077839 0.2021237271
139 3 6.6174835475 13.3661141636 12.6302185128
140 3 4.6709934096 9.6677429383 4.808428077
141 3 12.8243814984 5.2620276968 1.5025366059
142 3 10.2172874746 18.7579222832 10.1566098153
143 3 12.1237628735 9.3408747897 4.6449070047
144 3 4.7519143087 11.6831364439 13.7948276037
145 3 13.3288741242 10.7831057734 14.075981859
146 3 12.2807158647 0.405873171 12.4862684505
147 3 3.6656575392 4.3214314706 8.2362283416
148 3 2.3805871161 15.3446114057 3.3210942993
149 3 11.1711885858 6.8131373173 4.0530361242
150 3 4.9696569573 7.18677978 7.8370220076
151 4 4.802163561 13.0991814307 5.4029467503
152 4 17.777931207 13.2666667216 10.6648469646
153 4 4.5186999827 4.7697201733 2.4624232101
154 4 4.8010920586 4.3106079041 12.9112286274
155 4 -1.5682120749 15.7748965418 11.8909039545
156 4 12.5604349112 17.2715787377 0.3777369783
157 4 4.1233429005 8.0318152935 2.6534671248
158 4 10.6954737557 3.4880753511 7.7598910932
159 4 9.6953494996 13.0551460467 14.1661936476
160 4 7.708587011 13.7101404473 6.7345510848
161 4 10.5900293537 9.84145637 -0.4223981922
162 4 4.0867898843 10.9556627719 2.4990624234
163 4 14.7142102851 7.4913430224 12.2377965138
164 4 6.4490208477 12.0349754798 9.8475983619
165 4 11.6526471693 7.2696043975 12.7346583834
166 4 7.7838952531 6.8907864425 3.7220823138
167 4 0.2239036554 -0.0393804012 13.5512522238
168 4 6.8297522125 14.4817182233 2.5878712707
169 4 14.1600056559 4.2883556833 7.2505878945
170 4 9.4463935502 1.6047273832 2.3922009045
171 4 4.6666145399 7.5795730798 11.845465818
172 4 7.7531696877 18.535622093 11.9327681625
173 4 2.6961083695 2.3658923265 10.6716241137
174 4 8.6837969415 8.427206207 7.7793251484
175 4 12.4818982416 13.0575521255 2.2848359499
176 4 10.3074600156 3.9907597615 3.7387629012
177 4 15.1881105564 9.1225415021 4.2310934268
178 4 13.996034597 15.7173162817 2.5904484726
179 4 -0.4502503927 8.8210022893 6.986825208
180 4 7.9639684508 17.1169719157 6.0594061908
181 4 0.5704396265 -0.5732677163 9.5332012878
182 4 -0.1554526059 14.3644354904 4.7796701052
183 4 10.4609916349 16.2747288986 3.1541383668
184 4 2.5877104198 7.0138506366 10.4184754242
185 4 16.8208198175 4.7270324049 3.2910897852
186 4 0.7707739289 15.4973971493 0.6308865132
187 4 14.9925055954 6.2378739035 -0.6808479624
188 4 16.2626017677 13.5817349519 2.2732577742
189 4 15.3820281786 2.4722524656 4.9620592374
190 4 5.0381767267 1.3914569929 13.0723762392
191 4 9.0962857281 14.7204259154 1.0763937144
192 4 0.8419882247 9.7741326799 9.1898860386
193 4 13.0522233348 8.5173692329 1.4707838046
194 4 14.1989615793 5.6456655626 4.3048549995
195 4 11.0617561367 9.2019988426 9.2379842262
196 4 5.0904058181 16.0605706114 13.2994088319
197 4 1.5548819927 4.7631540713 12.6727882071
198 4 11.8318187262 4.9564687201 10.6939232295
199 4 11.190476158 10.5450070456 6.8925783252
200 4 14.7925998235 0.8938680779 12.6178972305
