# LAMMPS data file written by OVITO Basic 3.5.4
200 atoms
4 atom types
0.0 17.520744 xlo xhi
0.0 17.520744 ylo yhi
0.0 42.048 zlo zhi

Masses

1 183.84  # W
2 92.90638  # Nb
3 178.49  # Hf
4 91.224  # Zr

Atoms  # atomic

1 1 11.605905871 -0.9013581792 -0.1293552058
2 1 4.2682549022 17.3529504628 6.3190335686
3 1 14.6714985346 1.0748522657 0.5314846176
4 1 1.1919158903 7.5167900638 11.3182867987
5 1 8.9813194447 2.0700555795 6.3413656819
6 1 2.0744518846 5.8535633566 6.1134289402
7 1 13.3039986835 5.3518932953 3.5311990291
8 1 5.4736854183 16.5366703883 10.2679925126
9 1 14.53013101 13.9174121955 11.7193641696
10 1 7.1190975586 13.821445474 12.918784631
11 1 10.5133255909 9.4954337896 6.1360116595
12 1 8.4986979363 0.9500980857 11.2395472934
13 1 16.5825913823 8.6984981934 2.8641281126
14 1 7.9674053779 6.7745763065 4.341551449
15 1 8.9264313339 9.2963913047 1.5419354803
16 1 10.1674557671 13.1358454455 -0.1204565875
17 1 17.2515812199 1.1756724085 4.806980761
18 1 11.6439500641 2.3289457722 6.7383690221
19 1 15.059060896 15.8369106202 7.6516814362
20 1 18.0742365675 6.5617090785 3.5546235494
21 1 17.515779322 14.107114547 4.4388770112
22 1 12.5754893018 11.6103149662 7.4922783091
23 1 11.8333119876 7.8985388672 13.763423831
24 1 3.6998560361 7.5542674608 6.5034939398
25 1 1.7215248803 14.9768623255 0.110722896
26 1 16.4468648364 16.369974701 5.1262693056
27 1 3.7007264667 2.7821750061 6.468894743
28 1 6.6777263642 1.3698697069 3.4701999955
29 1 -0.6887290582 12.4546630974 9.2259564538
30 1 18.4969600836 4.71124221 11.3368964026
31 1 -0.9477005471 12.4962934364 12.1496249549
32 1 0.7761311144 14.879139675 8.064522576
33 1 12.687660609 17.8494222946 8.0981437363
34 1 12.1368669369 1.2294050262 10.3569143616
35 1 14.2061146349 13.3312984556 8.9317419725
36 1 11.0421212681 9.6795270502 3.6287911757
37 1 15.5006320021 7.0275388811 4.3819705094
38 1 4.2398693696 15.1131998198 4.9365634464
39 1 14.1484211026 3.1858068683 1.6693825478
40 1 4.7779734676 11.0264517659 10.4526833069
41 1 4.1828551166 11.1177246801 3.9424112294
42 1 4.6808153355 1.2267131391 9.0737128397
43 1 0.1965620732 2.8132580324 12.7091152224
44 1 1.1955269156 14.9758103801 11.2837048416
45 1 12.2054329669 0.2340396454 1.829236009
46 1 8.1435382636 -2.9485665334 1.0023011194
47 1 17.0794973781 17.4415731893 7.6464430963
48 1 17.8537583283 17.723038335 11.7088277818
49 1 4.3373796687 3.1576895784 3.2904763315
50 1 11.5161428945 9.9399341889 11.7684186278
51 2 10.7818113695 8.1199472826 0.3613584096
52 2 15.4606675354 7.9186244729 8.3672383219
53 2 18.3035741709 7.6297739831 1.0381722682
54 2 8.554624852 5.1821383109 9.8899057267
55 2 14.8792567136 -0.0877361768 2.9406159475
56 2 -2.301175393 14.7372482802 2.5946929382
57 2 13.7867817332 16.5779524149 5.7517009286
58 2 4.4372260085 12.5825573451 7.4452842029
59 2 1.4972160809 10.1335257951 1.316387065
60 2 12.8965394148 9.0171682886 8.2220680224
61 2 8.4254414279 9.9535329143 4.6825464326
62 2 2.6036598249 17.5271902321 10.7156531808
63 2 1.2584887604 4.2422586735 1.8290186208
64 2 11.1231958828 4.6985365168 5.0466186202
65 2 16.1940115913 10.9280738396 1.2383375674
66 2 7.2631224545 16.693844077 4.8715601818
67 2 6.1943194009 4.8280302332 1.8105978125
68 2 2.9462445092 2.8206544145 9.9764972755
69 2 2.3116753997 12.8573604031 10.2471875827
70 2 1.537397104 2.5703227549 3.7579319366
71 2 7.7488188535 11.8554291236 13.9818560429
72 2 12.8774551196 14.5277170019 13.8438175046
73 2 12.2431407617 5.1399082368 1.2104437651
74 2 2.8279272754 14.4565298686 2.9307523277
75 2 11.4795618587 10.9188074685 1.2406371725
76 2 9.6430870564 7.2917692213 6.4399190458
77 2 13.2930506714 3.5229306872 10.7761816973
78 2 9.2069433512 14.8415993785 3.8394550195
79 2 7.0574783284 13.1284082401 8.3453691571
80 2 9.9327669781 1.9977996809 8.9867525299
81 2 14.3630316447 1.9408642712 4.1460690355
82 2 8.356952314 3.196838104 2.9423066976
83 2 2.9194812223 1.5802565231 1.3031276486
84 2 18.9547205323 16.4519467282 13.6670510765
85 2 0.5123764623 8.704801281 13.7101166381
86 2 8.6862438346 14.7404635119 7.1278003584
87 2 1.9456332425 0.6761193787 7.5612488026
88 2 13.7371629862 5.9187180978 9.4220119814
89 2 13.2909558913 12.1573839033 3.0832044998
90 2 15.7451735815 10.217282135 8.7033019162
91 2 10.4797914125 9.9276491688 9.0387625421
92 2 0.5418570414 3.2412437288 6.3308313965
93 2 2.259418379 8.592234005 3.4763120928
94 2 8.9080892175 11.7698721769 6.9587648755
95 2 8.9957780883 9.0661266788 11.059264391
96 2 6.3503032558 2.0380013784 6.127170647
97 2 15.2315431595 12.928406144 0.6090144019
98 2 16.4421224967 13.16911874 6.8539131418
99 2 9.7162675247 9.3852319892 13.7995842701
100 2 13.8360581249 8.5940808666 11.4209810496
101 3 2.9663069875 10.0327694278 6.0777041184
102 3 2.8232592235 2.7464212999 12.988405607
103 3 3.5808773942 5.4306057634 10.7397689702
104 3 0.3526445699 5.3840482408 13.6953350842
105 3 7.2786675594 17.5476891522 8.5716685498
106 3 3.8158584292 16.652464635 0.122579591
107 3 5.9480241702 4.7636297601 4.8684490502
108 3 4.7463425677 5.1235324734 7.832785536
109 3 5.6562438617 15.3671496883 7.6403860819
110 3 13.5957227505 11.5631345812 13.6683474163
111 3 7.1626567563 16.7901846912 12.9529015373
112 3 12.6797715436 7.1503046318 5.6790840326
113 3 12.1251075392 15.222098252 4.0693112525
114 3 11.3609269738 4.98306972 8.065026311
115 3 13.9514164555 4.4013338884 6.3171603302
116 3 0.4525667746 1.8929778001 9.5551187098
117 3 4.2650515845 17.4203557435 3.3698478182
118 3 7.6127371621 8.4557982194 8.8171258522
119 3 9.1353933633 0.2016105004 2.3107280774
120 3 9.3077174144 12.4925527575 2.5657004218
121 3 8.8340512839 5.4271631124 1.6530696058
122 3 6.6461874482 7.7545265862 6.2589419309
123 3 8.769311434 -1.0627005785 -0.775164551
124 3 16.2519509396 16.1088996715 0.5399093549
125 3 13.6788944231 10.1208740659 5.5462918234
126 3 10.7284848826 6.8332522269 3.0574337011
127 3 8.0594737339 4.8432533069 6.491832768
128 3 13.9025756295 13.5341599371 5.4660751718
129 3 11.8340511878 10.1724230733 15.365463984
130 3 4.3404158384 8.0568799629 9.7406912506
131 3 5.7062787263 1.4763979329 11.8217804832
132 3 11.9796436646 15.2653897327 7.4609706298
133 3 9.8456501596 14.9282179071 12.5297098618
134 3 3.7738237115 12.6195551994 0.6533275277
135 3 16.1174522475 11.9702980997 3.9139047878
136 3 12.9803858113 5.6708955838 12.7997555731
137 3 6.4138774506 -0.8404665855 1.6619934528
138 3 10.4073601312 2.2036558079 0.9585312538
139 3 6.2045855056 10.8037506699 2.1704567904
140 3 8.5269394483 11.6731632766 10.9490717203
141 3 13.5088824093 11.2903075127 10.0037069568
142 3 10.9867762163 12.2789104118 13.2199588973
143 3 16.2489937885 4.0023676251 4.0150028966
144 3 4.5257681396 15.860738832 12.4597138176
145 3 7.9013195844 11.4300766198 -0.3819905222
146 3 5.0617163101 11.2697327278 13.1266342022
147 3 -1.533347184 6.0775527529 11.222948425
148 3 11.4128058968 7.1911768482 9.959636448
149 3 1.0162634234 4.897452502 8.6497117402
150 3 14.6460715549 8.0760872538 13.9215941107
151 4 15.6452364841 4.2573461365 8.7898261882
152 4 16.7015491746 14.6755931325 13.6709430394
153 4 2.3719705872 10.2265110117 11.7738810835
154 4 6.7302642424 6.6781922408 10.8809165376
155 4 14.9926285422 1.0712142584 10.2729966451
156 4 12.4961573002 14.846311057 1.2634805894
157 4 4.9796626361 8.5057453051 4.2591466195
158 4 10.2817731903 12.861685574 9.2647272326
159 4 5.8635254765 1.6349427949 1.2330008352
160 4 3.3441766982 -1.5447074592 8.5109886605
161 4 3.4830189579 5.7411241572 3.2750224301
162 4 2.3981570912 10.1791680341 8.7416332934
163 4 10.5261986072 3.7234033904 10.9081468224
164 4 16.6135563188 15.4581610178 9.6262206163
165 4 9.6802510073 6.4381916879 12.6118619827
166 4 5.6493517266 10.5290520355 7.6699189152
167 4 6.1662818303 14.5801369654 -0.6271063949
168 4 0.9476980942 -0.7766866972 2.7050033434
169 4 7.4288366297 2.959144157 9.7816186714
170 4 12.8280077255 15.5609184293 10.9567728115
171 4 0.9923558425 7.61135863 8.5393147162
172 4 5.8259401516 4.6869032684 12.0585481459
173 4 11.5043773645 -0.3416921776 12.77197488
174 4 13.3014588765 8.6037607273 2.4464094048
175 4 10.9109334709 12.4657798343 5.412827687
176 4 15.0902343294 1.791789196 6.9363276422
177 4 0.005552499 9.1707213155 6.2683270445
178 4 6.7830235828 12.4364168194 5.173176793
179 4 1.7857182583 16.4590685603 5.6015365882
180 4 10.2593949952 17.1999791247 5.905356935
181 4 16.400805779 9.5080930528 11.4523555853
182 4 0.7295038592 17.4741638756 -0.4875066144
183 4 15.2070149939 16.7455187081 12.5342825818
184 4 15.4661657201 3.4077903146 12.1808687213
185 4 15.7950784422 5.5790709414 1.3677322982
186 4 16.655674961 2.0820210212 1.7617414003
187 4 6.7296687123 8.9860206107 12.2820538694
188 4 7.2669449552 7.464312457 0.4093797485
189 4 2.7672716861 6.6692275769 13.0496195059
190 4 6.0548586588 13.5170265767 2.5838950118
191 4 8.0887785799 15.0485028957 10.0128317933
192 4 2.3178057328 13.5127557202 13.1499582278
193 4 0.5996111955 13.2728650223 1.6159437446
194 4 11.9849219639 2.1199374881 3.7014976339
195 4 1.7218080156 11.5685428844 3.7623381466
196 4 5.0392233541 13.7463321172 10.7150249837
197 4 16.7478873375 5.9983013468 6.342141888
198 4 4.0145184363 3.7274217731 0.7609876474
199 4 10.1471963556 16.6372282456 9.1565007264
200 4 1.6888055918 13.3401350428 6.4577785133
