# LAMMPS data file written by OVITO Basic 3.5.4
200 atoms
4 atom types
0.0 17.616934 xlo xhi
0.0 17.616934 ylo yhi
0.0 42.27 zlo zhi

Masses

1 183.84  # W
2 92.90638  # Nb
3 178.49  # Hf
4 91.224  # Zr

Atoms  # atomic

1 1 10.1108754796 14.5776099857 0.9509021157
2 1 3.5675062972 5.8171762609 3.0863901243
3 1 15.0407986425 16.7079054907 6.3702982365
4 1 2.3712072536 8.5762490321 11.2937032497
5 1 8.09017175 -2.9141597501 3.1178220963
6 1 10.6874199459 6.7792601049 2.2558877631
7 1 18.2589997195 10.6593639215 11.9734272528
8 1 9.4896694431 0.8764461661 9.3221361876
9 1 13.2030018493 12.5667481325 9.9876752241
10 1 8.8803442669 17.9318240111 5.5033270101
11 1 12.9202061925 7.9717420874 7.4637369057
12 1 8.2681218097 0.1569175545 11.50196289
13 1 17.7221560711 9.2542194725 3.258556257
14 1 10.5010777074 9.3609245371 11.6400754653
15 1 14.2410016423 12.646409794 6.2918645607
16 1 7.1865120013 2.5838036565 1.637996316
17 1 -0.0332611237 -1.694991636 12.5243068008
18 1 7.7284279175 -0.0828645963 7.8891988275
19 1 5.907888849 11.9595671133 11.2339262838
20 1 12.9280640497 9.5157463812 10.0120650141
21 1 12.6803909218 10.6105435216 7.5555773574
22 1 11.6960415635 13.4938408697 8.1946629825
23 1 1.7643229036 12.0820248879 9.1636004391
24 1 7.9750160184 6.7022408073 3.7836946431
25 1 -0.8921181905 13.4071491707 5.1140668071
26 1 14.7744739381 11.0165602949 8.9239988619
27 1 2.2874329188 3.2159630217 7.7269733307
28 1 3.3102053387 1.3823102599 5.8642109394
29 1 0.0953447847 6.862280611 6.2736056115
30 1 17.1432785942 11.0593528846 9.8218225386
31 1 7.5916764673 11.236210342 9.4217517831
32 1 -3.4787280485 13.5046252521 3.5187175395
33 1 13.8633874185 15.0880629386 8.2741901832
34 1 14.1450932919 0.7883817555 9.6477073362
35 1 16.1761760381 11.0148408821 4.7677461609
36 1 9.8509300432 11.1653892103 6.7340087607
37 1 17.0126183751 4.4853830878 2.6183246922
38 1 -0.9844446659 15.9003674335 4.0302771108
39 1 5.999808197 4.8266815876 2.9429709732
40 1 6.3375820768 7.6079210421 7.9699945509
41 1 5.0574514434 14.8816118507 6.4880675289
42 1 -1.2529066568 18.121200238 13.6186525842
43 1 16.3871877979 5.3768552653 10.081614804
44 1 5.2454420985 9.4042488059 9.6026318763
45 1 8.1136730923 2.5625601005 7.261956411
46 1 10.4712786635 15.7235404533 8.1049732284
47 1 11.7175298188 0.686348878 2.9304138243
48 1 18.502021096 5.2580362684 4.6487780913
49 1 9.2387933804 4.40671784 2.4647797626
50 1 -0.2340515384 2.4971600517 7.4021884041
51 2 13.7930865149 18.6513991313 5.0430701151
52 2 -1.5457494273 4.7704747596 5.6752243056
53 2 13.486512049 2.4590407061 2.089198977
54 2 8.3927218035 8.755332213 9.4707866739
55 2 -0.9775467554 17.8002989767 8.5036824672
56 2 16.3311014698 17.8624076537 11.300563248
57 2 9.4853048477 4.6267151169 5.4795568983
58 2 11.7774527627 16.7552587523 0.8119479447
59 2 3.7822121518 15.1684042614 8.893109214
60 2 11.0392752172 2.5334653816 6.5774182776
61 2 8.1577124324 7.9427074423 5.9800785045
62 2 1.2055627322 18.2111718578 3.1660424442
63 2 6.475456078 5.1407879974 6.0781440591
64 2 11.8107619807 6.7994329037 4.7316505398
65 2 17.5339554222 15.5169426164 6.8287971222
66 2 10.5535153922 10.8910024684 9.2250069135
67 2 8.8535945381 9.3054308427 2.3792874195
68 2 7.8737484205 10.0890220253 11.8760815563
69 2 5.2442302296 16.9880927843 8.414726943
70 2 4.9352857576 9.0939037876 12.4380760008
71 2 3.6573154888 13.5138686812 5.1116430453
72 2 13.8293430459 6.717512575 11.0971278828
73 2 7.099106288 4.9305771035 13.825464477
74 2 2.6503410545 16.4845144876 5.444414043
75 2 21.8194493776 7.5472898974 1.3256653995
76 2 10.9880316081 5.1430084358 11.5404298581
77 2 13.2282113295 4.2464225908 10.5471541809
78 2 8.6706083255 13.1163674053 7.9796283066
79 2 10.6364659592 19.9045825501 1.1117538375
80 2 3.7700187671 21.2246183577 5.3045455719
81 2 3.8948594082 -4.8508287667 2.5510545234
82 2 8.6321616573 5.3972366486 7.7960712543
83 2 16.894858156 8.1593693051 10.1924543526
84 2 0.3501717971 15.7277061535 9.569949135
85 2 9.43803879 10.5243421019 13.8745348746
86 2 10.6329513808 8.2397916658 6.6186708387
87 2 2.1549267974 10.7862047893 2.1459409569
88 2 10.8050408151 3.1888697628 9.2335171326
89 2 11.691613371 13.6893507846 2.565290214
90 2 15.8426170098 0.0990968393 2.5956299292
91 2 16.3168851325 7.2831851028 3.9221504508
92 2 3.9300876388 7.0046050021 9.3861198639
93 2 7.2658928489 10.2172341953 4.4409715854
94 2 15.9982633263 2.6899647102 3.9814425798
95 2 6.7394158852 10.1342938461 7.2746365656
96 2 1.419161891 11.1042397754 4.3994713221
97 2 20.3647846081 13.9703229126 0.6574054431
98 2 11.8948349225 12.1288593308 4.9626455223
99 2 5.9210118793 4.324748184 11.7765378198
100 2 6.1745415807 7.011670802 10.4812429926
101 3 15.1687021638 2.9413151969 12.134799741
102 3 3.9815664339 1.9394248335 3.0735366627
103 3 2.0869705315 8.2598776131 4.7729183181
104 3 5.4455014104 15.0568608821 3.8831910372
105 3 5.5251778701 10.8687202179 0.8740793496
106 3 -2.637542352 14.1918555053 1.1025943512
107 3 5.6723238398 7.802028649 4.2984819516
108 3 3.3825011839 16.311558124 2.436256812
109 3 1.8303890486 13.8296858715 7.0367173344
110 3 4.1258087806 14.1877995586 11.6469223599
111 3 12.0502289646 20.76629955 13.6838544819
112 3 14.6080793539 5.2319522836 14.2598550909
113 3 8.0538569069 15.4035003078 6.1149663015
114 3 9.5388638505 -4.7802498678 11.6630593551
115 3 4.842988174 2.4137981294 7.775477733
116 3 17.5094777494 18.168394771 5.712249444
117 3 6.3233727864 2.7650174294 4.5138137856
118 3 13.907902592 9.2312658407 5.2028177445
119 3 13.7316046484 -1.4322551487 3.2638023867
120 3 4.5395509317 11.9547041348 8.5953783555
121 3 11.8437377101 4.9880292725 6.8809401261
122 3 6.5636589577 8.7250862275 14.2386951516
123 3 7.032362948 12.0397218728 3.1182067533
124 3 4.5737383539 10.2269918627 3.662091039
125 3 11.2670627023 7.2702297857 9.6276760059
126 3 8.9621768632 7.1717898819 12.0139950399
127 3 8.6749753873 -0.2400331921 0.72121074
128 3 13.1670791592 8.2539991946 2.1033230748
129 3 16.6621046333 13.566643378 8.4406874862
130 3 0.9561747719 5.514977313 8.8341442548
131 3 5.2321510026 4.8118400253 0.1551769743
132 3 10.0394632998 16.1821665004 3.1437200799
133 3 6.4554779464 14.3812837022 9.1583107713
134 3 11.4737695881 3.4807018498 4.2812108523
135 3 12.1475234153 15.4962199931 5.6877045231
136 3 11.670725677 1.1529575102 10.9516810398
137 3 6.2507267165 12.6997353724 5.9525497443
138 3 5.6670049351 19.2636457237 -0.0243077862
139 3 7.4907051862 7.4183445107 1.1562599205
140 3 6.8105072607 -2.353126818 12.0479120652
141 3 12.1968124256 11.0778365717 12.1925037861
142 3 12.5100887255 14.2959842694 12.2682896691
143 3 17.0614444124 2.2242952367 0.9626747334
144 3 5.0179703088 -0.2376869689 11.2473098112
145 3 3.2767893621 11.0140743693 11.1293507265
146 3 11.0833917195 9.2620264168 3.8867789148
147 3 1.3210560043 7.0770123625 2.2667917323
148 3 13.9658563152 4.8226013295 4.2344830581
149 3 -1.6927618606 8.6054589657 7.5333606681
150 3 14.5576420719 5.6513670875 7.8964130484
151 4 0.0621851345 4.6703031112 13.2408412107
152 4 0.7101882893 2.6752973794 10.7075599542
153 4 6.0012665268 -0.1030483176 5.4627541506
154 4 8.5677830383 5.1907364095 10.3104988227
155 4 16.0614543878 7.8742276011 12.6853225302
156 4 9.6494493971 11.86994977 2.4558831957
157 4 10.6720090044 8.6758713846 6.006567e-04
158 4 4.2250595919 6.2668220759 13.6627571022
159 4 12.5726424063 5.0761770111 1.9223639367
160 4 15.2809137534 14.9402210999 11.4354561174
161 4 0.8657188626 13.3960908451 11.5215207963
162 4 -0.0442290745 12.9187675936 2.228664615
163 4 14.7467794132 11.2504032487 11.815301946
164 4 11.9796505942 18.1597136744 7.8486462576
165 4 12.7465506128 8.0322446285 12.9749421984
166 4 3.863762701 9.8460586086 6.5244180381
167 4 6.4858775515 18.6196902356 13.1290856712
168 4 0.2933459101 16.1570310113 1.3502758389
169 4 2.7168229592 5.4253629646 11.4223143744
170 4 12.3520406923 16.2233591201 10.2074534394
171 4 -2.5688451179 10.6401218253 2.3855264715
172 4 10.0958736033 15.4470587056 10.8299565435
173 4 8.875465257 2.8291513491 12.1436388207
174 4 12.2588752986 10.7490836191 1.4136512499
175 4 9.9966101078 13.7210145809 5.3727448353
176 4 19.6245395392 0.6985579418 8.2275841266
177 4 9.584832421 0.7817373527 13.7038655226
178 4 9.537143733 5.1006062373 0.1148953551
179 4 3.076726703 5.9742803788 6.8331851709
180 4 15.6997434989 3.1201381756 9.3344887497
181 4 3.7473216378 2.3758748602 10.7782840047
182 4 5.7235618115 14.7120867374 1.0246548117
183 4 6.9673793635 2.236859634 9.8979584172
184 4 17.7244483865 11.1771210313 6.8075830773
185 4 13.503325827 17.6473543931 12.5898438996
186 4 14.6427027952 0.4473080478 0.0294524679
187 4 5.4173213627 4.6773886421 8.6498787573
188 4 9.9377718385 5.4793204624 13.8825133371
189 4 6.4936372824 -0.1372616366 2.5216375623
190 4 19.8713906609 18.9996882067 0.4243261269
191 4 18.9295574826 14.7160197179 3.7999829649
192 4 2.7408161663 21.3577246881 13.3089931317
193 4 2.0601621384 9.4777841786 8.3882270346
194 4 15.9121912149 8.3392767823 1.4568511899
195 4 18.6574516051 2.6228700885 4.7229826536
196 4 2.146434202 16.9457413226 11.3201177727
197 4 14.2929925617 2.5967491081 7.1325852717
198 4 8.0711100513 11.4780823897 0.4971243663
199 4 1.559426334 4.1562411533 1.7462548584
200 4 9.3324856967 18.997852346 3.1517957634
