# LAMMPS data file written by OVITO Basic 3.5.4
200 atoms
4 atom types
0.0 17.563496 xlo xhi
0.0 17.563496 ylo yhi
0.0 42.15 zlo zhi

Masses

1 183.84  # W
2 92.90638  # Nb
3 178.49  # Hf
4 91.224  # Zr

Atoms  # atomic

1 1 12.6236691366 14.6864406208 4.005161283
2 1 3.0936561398 0.4661522204 1.352716578
3 1 13.3720823692 1.8862637941 3.105317793
4 1 17.2463993742 6.9504637443 10.635661449
5 1 9.162502112 0.4390117013 5.7916827105
6 1 6.9598828716 10.3381465067 0.27218784
7 1 14.5838353797 3.9414211516 3.7241484975
8 1 4.6339643765 0.8976943425 4.12967154
9 1 15.3950509319 6.8827234479 12.050900808
10 1 7.882516149 14.9321421623 11.516261778
11 1 7.9889273997 13.3100932395 6.3517997295
12 1 1.6241238742 3.257066731 11.7573897045
13 1 18.7836412001 12.2285071619 11.605413243
14 1 5.025936996 5.9603652148 2.108904438
15 1 10.6597253367 5.8785878211 2.4282459045
16 1 9.0557662879 0.1915527564 11.501859966
17 1 16.5025960323 4.5322086818 1.44761646
18 1 10.1284585625 14.782231928 5.183934084
19 1 0.5684734598 15.0467209655 6.558085623
20 1 18.9472337491 10.307515594 5.520771594
21 1 15.3763667092 8.4940488025 8.955975519
22 1 13.892824921 10.0288350761 10.4401634265
23 1 16.7098259653 9.6601823885 11.22693069
24 1 6.3913092999 4.0204818237 1.3701316935
25 1 2.2802328561 10.2038291441 10.251042699
26 1 16.8966176092 16.9608632968 8.160022506
27 1 1.0478560861 15.3640051695 9.143315409
28 1 3.4077759287 1.9761456874 6.156672627
29 1 2.7159259349 13.5775982806 10.0774247415
30 1 14.9933669286 4.3338305752 11.8601463465
31 1 5.1346516992 17.3929985382 6.748502463
32 1 15.6188527259 13.8096153998 7.8268836585
33 1 13.487666507 13.4064560629 6.394463538
34 1 8.3543870437 4.6520714627 7.9705502475
35 1 12.5640277194 11.5472709644 12.160332324
36 1 10.5539059758 9.0134610951 3.110755986
37 1 12.0911488556 8.6372496057 8.675985714
38 1 2.2005920617 1.2974245825 3.720913485
39 1 9.2445612242 3.9800506559 12.305472477
40 1 4.6040309103 6.7336374684 6.5217805635
41 1 6.0019782302 11.2007305426 2.1547758615
42 1 6.1826140444 15.1269645391 7.6334522505
43 1 13.8490640657 1.7965218819 12.201486741
44 1 8.5151213094 15.9929372759 7.165545522
45 1 8.8074864252 4.1103751333 4.9249817655
46 1 8.9245530976 16.7214354361 3.3960706005
47 1 15.3860320767 15.9401679278 9.937716459
48 1 13.9474904241 17.4340535614 4.624281558
49 1 10.0721629913 2.4309698042 3.64213092
50 1 17.4855102138 5.4229931937 3.5320574595
51 2 8.8022472344 11.1432251978 1.6682409405
52 2 12.3849473284 4.6479350838 11.5184489415
53 2 16.5989356718 9.3154576809 6.7221169845
54 2 7.9025534634 7.6575927502 11.8492842915
55 2 11.8155180631 4.4013112831 4.3398866565
56 2 -0.5259511822 14.481972372 3.517880307
57 2 14.9686586025 2.4614935796 5.8109730795
58 2 11.7428169572 16.7264102964 6.20619129
59 2 3.1300866945 13.2063391702 13.08025776
60 2 11.2128558533 9.0127791046 6.0397514775
61 2 9.3437733735 7.0217135785 4.454978496
62 2 -0.6213915707 16.3921177785 12.4666089765
63 2 3.5400092068 15.472939592 0.766079622
64 2 7.755226995 5.4774224678 2.9206084845
65 2 11.4854116289 10.7719539685 1.244442501
66 2 11.2618529137 13.9703798747 12.895736019
67 2 6.5224069223 12.2637012464 13.024483194
68 2 4.2869081149 4.678064383 10.815366288
69 2 1.7371609537 3.2435639152 7.87360314
70 2 15.6902355158 6.5716660301 5.5357167195
71 2 4.6885949283 13.721891182 3.3644403975
72 2 15.4618081995 11.7068686962 12.2860012845
73 2 18.721721095 8.8444568818 -0.1183997715
74 2 1.0424323029 2.7262938422 1.771787895
75 2 14.7593856837 12.8735829313 3.579447126
76 2 4.4006003128 8.7123950233 9.318295233
77 2 11.2759490243 18.0916680862 8.6199279
78 2 12.1139629588 14.9449515712 8.135153163
79 2 8.0018767897 14.0015046728 13.753967343
80 2 7.495052079 3.6593438535 10.050287307
81 2 14.432202869 5.7209298018 9.8890968555
82 2 10.5720566195 6.0572345694 6.4593715875
83 2 2.1915830421 4.8476399369 2.810314158
84 2 16.9542481817 13.641745437 10.727024103
85 2 4.6249795945 13.2993220743 1.0483181295
86 2 13.8752131254 10.7099060011 4.7588264655
87 2 5.3661215399 4.5028809805 7.956421146
88 2 12.2706419888 6.1084230272 8.990503113
89 2 13.0983854933 13.5415212791 1.540973652
90 2 13.0368754958 7.6353554323 11.524055313
91 2 16.3679971269 11.5507337832 9.184505232
92 2 3.5167993981 9.3889993757 6.798934095
93 2 5.2539001091 9.2916900556 4.762556319
94 2 8.6583644406 10.9069682506 8.1834153345
95 2 14.2084254883 5.908982856 2.586052554
96 2 7.3270913129 6.2553985769 6.318739377
97 2 16.4005054016 12.5874238768 6.005198172
98 2 1.956958095 14.245513269 2.279671791
99 2 1.1773675493 0.4949136746 13.619515587
100 2 1.9365284121 5.9330834852 12.1304989755
101 3 3.4173945773 14.5128047379 7.437943269
102 3 3.4932053002 1.4285113156 12.965198376
103 3 16.8067330813 2.2950383564 12.8261392035
104 3 15.0656821645 -1.3619115926 2.7363379575
105 3 6.7449385243 -1.105922409 4.891631421
106 3 17.6906388501 11.6644187801 3.1459044495
107 3 4.0820940408 2.8914368966 2.4853751715
108 3 1.7161467577 11.5283257481 -0.0306173385
109 3 16.914902438 13.1724932596 0.661270275
110 3 1.4155331215 9.4233460216 2.510152206
111 3 16.6270906585 2.1423000479 7.89531882
112 3 4.079753178 7.5205319695 11.7371450595
113 3 11.1192222216 11.9338965531 3.74712657
114 3 7.1398187805 -0.4107912029 9.6139113075
115 3 9.1978553218 1.8001246818 8.1082812735
116 3 14.3015654101 14.5158398857 12.561122343
117 3 7.377935175 1.6482685878 3.481460178
118 3 10.7458251068 12.4867889087 6.474480255
119 3 6.2536376608 3.0255143418 12.514458921
120 3 8.2162241537 10.669849814 5.214209586
121 3 13.9486882546 8.0792466241 6.6527616885
122 3 9.8947066967 6.9450845724 13.487484084
123 3 7.557907089 13.4208744637 0.642255567
124 3 0.7986010981 16.7429781178 1.7825138055
125 3 14.1270776977 11.0417329554 7.846377612
126 3 9.1771725489 8.155756901 8.2908177495
127 3 6.668319705 2.1979273281 6.750097419
128 3 15.2693265098 15.1199484494 5.600744475
129 3 16.3485420424 10.5968887683 0.294716172
130 3 4.8368684204 1.6824538251 9.3516599085
131 3 3.6009773705 4.403267681 13.3421462475
132 3 14.0481390918 18.3190407146 8.232539895
133 3 9.6154853988 13.9671290472 8.9670613905
134 3 3.4922528318 7.0782741829 4.128924642
135 3 2.8640408287 6.2790962996 9.048147453
136 3 13.4862048728 2.9650802841 9.6317019795
137 3 5.6955482668 18.9552172362 0.607220487
138 3 11.2268639708 2.0469264007 11.9570871315
139 3 3.1463141353 11.4045240019 3.4583742015
140 3 7.8348258127 14.1598870107 3.528602424
141 3 14.5899739972 9.6371455802 13.298427003
142 3 10.4733118348 14.8988747933 2.109237423
143 3 13.103448171 4.802776094 6.8561211075
144 3 2.9422105047 4.558141008 0.1266864615
145 3 4.8809025638 11.2785392887 11.0934074985
146 3 7.6531156394 9.7970102772 13.197835185
147 3 -0.2639832088 5.2739045797 13.709174538
148 3 13.4950647784 12.9626335444 9.9168787635
149 3 17.0365869048 5.9070970634 7.8428956005
150 3 9.6783750089 6.1773567632 10.464590616
151 4 15.8567422 1.7456702919 2.2230858375
152 4 -0.1520459554 13.5673108141 13.411925151
153 4 6.7660382546 8.5193980206 2.484660729
154 4 6.6187356725 5.6485506347 12.4711114395
155 4 10.6599304783 3.8104153862 8.9691672045
156 4 12.2381444278 2.0876870597 5.795747235
157 4 8.9665830705 2.9502617869 1.205672931
158 4 9.2302111454 12.6089713006 11.2554236685
159 4 13.9764865266 10.6397261351 1.706713353
160 4 4.3759476629 16.5003243697 9.593389737
161 4 4.2246502637 8.0679720891 1.033732122
162 4 1.6750873436 13.1785739175 4.993538319
163 4 12.4281322767 4.218025313 1.4763893145
164 4 1.366379746 11.8190277765 7.717238442
165 4 12.5924452803 7.6956811232 1.0756540905
166 4 6.6364301922 8.3941924242 7.097148717
167 4 8.673139556 1.4982912609 13.754555757
168 4 5.2383994457 14.3008084234 11.5778677965
169 4 10.5690100555 8.999679898 10.91910081
170 4 6.3321693205 -0.0624331349 12.6644695065
171 4 1.5257321158 9.0552604592 12.4818917235
172 4 10.1154519155 16.2052887243 13.461849297
173 4 6.3517183697 6.4111809905 9.796396782
174 4 15.6980326542 9.0734416634 3.5723393715
175 4 5.4344746267 12.8407683492 5.651125527
176 4 1.8933338038 17.7548207822 7.6996260645
177 4 1.2218404288 7.6037121597 5.61395007
178 4 8.7562350901 8.0491752844 1.1312162205
179 4 2.7003277941 4.7983377985 5.953567794
180 4 12.7604531165 -1.0845509714 11.1852203145
181 4 5.7609770315 4.2937708753 4.46269869
182 4 2.5955009464 16.0782647791 11.9642340855
183 4 15.0832444311 16.9160577647 14.019497169
184 4 15.8125647385 7.3630966554 0.9407428995
185 4 15.5806501901 0.756341746 10.7256200865
186 4 11.9213361945 -0.203704588 3.1041565605
187 4 11.3968533206 10.9648678959 8.8851791145
188 4 10.5355357885 11.7090987333 13.8417670575
189 4 1.3374410762 6.6583334524 1.532960094
190 4 2.9649504899 16.1747552891 3.996551724
191 4 5.8855779168 16.1209742836 1.9720454955
192 4 4.9332468753 11.4127474064 7.886436972
193 4 0.6125646845 8.8616392499 8.753228961
194 4 12.5491152575 7.2140577461 4.0586610135
195 4 17.1054008577 17.1132085342 4.3543972155
196 4 7.2707119639 10.0297541738 10.086670344
197 4 0.0255887842 3.1537164464 5.5202721165
198 4 6.4741046738 12.9489661587 9.212180079
199 4 1.070935398 0.4888763985 10.556570346
200 4 17.299731281 3.9647396783 10.257591966
