# LAMMPS data file written by OVITO Basic 3.5.4
200 atoms
4 atom types
0.0 17.616934 xlo xhi
0.0 17.616934 ylo yhi
0.0 42.27 zlo zhi

Masses

1 183.84  # W
2 92.90638  # Nb
3 178.49  # Hf
4 91.224  # Zr

Atoms  # atomic

1 1 10.7485894641 14.9981385322 4.9098807267
2 1 1.3515620157 2.6191241998 6.8049517698
3 1 13.5867259781 15.550098567 2.7844001406
4 1 0.9454543391 8.0852154018 9.5945253357
5 1 9.8717398703 1.6572137065 3.3635278842
6 1 9.6029614793 8.6939778932 0.136409517
7 1 17.1131557511 6.4637820406 12.4818047385
8 1 14.0208495125 0.2369350781 7.8221273277
9 1 16.3273790116 11.2596040448 11.4584505747
10 1 9.9504098746 16.8662239438 6.5014819134
11 1 10.824135986 9.4676172698 8.3395734192
12 1 7.9557090919 -0.5992445904 8.6540034639
13 1 15.8646175655 11.2064075986 3.0500459556
14 1 7.7233186543 10.6042849297 12.1945893879
15 1 14.5672311452 13.7652984441 9.9001644885
16 1 8.4943466728 5.1312947602 1.4358599079
17 1 2.9888638302 1.2418594298 10.7479261134
18 1 9.2700401839 1.8566851413 7.9274062578
19 1 7.5409451586 16.9398283749 11.1147396783
20 1 12.7524697264 8.1292920898 12.9497923938
21 1 13.6874689437 8.693614632 7.0930856475
22 1 13.1376090235 11.2031831712 8.1918279336
23 1 1.3843059062 12.5821173219 12.0491835468
24 1 7.4930020821 6.7346017057 2.9907851064
25 1 0.5288314669 11.3524593806 7.1485269795
26 1 16.0690696598 10.8155394507 9.0006753738
27 1 3.6411371537 1.7061368131 8.1237153237
28 1 2.5838225066 0.9790905273 4.6617304647
29 1 2.1227691984 9.5213834477 7.6629672513
30 1 17.2458538971 5.5607573823 10.1012517552
31 1 7.5822484127 11.9949907157 10.3084538001
32 1 -0.1411125222 12.5322110142 4.9662794742
33 1 14.6376669946 15.7446566389 10.9708394946
34 1 12.2747264873 0.0382766648 12.0877312506
35 1 16.6472195573 9.1701706659 6.0668351433
36 1 9.3659654466 11.1557474623 2.7811132254
37 1 14.6538340549 4.8958365096 3.0013018824
38 1 0.3130634873 15.9804519014 4.2579830646
39 1 5.0746961316 6.9565014353 1.8895835517
40 1 6.1949411095 7.1966197172 7.2780173202
41 1 5.8281852592 13.6493321573 4.6494865365
42 1 1.4707354653 17.2763493384 12.1601076354
43 1 15.2613512052 4.7839554137 8.9411731629
44 1 5.043582336 9.5709115198 9.4537324197
45 1 8.0600321708 2.064222137 10.1656741941
46 1 10.3543476734 14.8135824746 7.5698337603
47 1 11.0482431175 2.3443437194 1.0462484412
48 1 17.6633341854 8.4184675432 0.7505604918
49 1 7.1065001152 7.2475996008 -0.0313787118
50 1 1.1793346408 4.3609345996 12.1168015977
51 2 12.7357731011 19.920350763 2.8317670572
52 2 0.7341161376 7.3999335815 6.22049547
53 2 16.3745184036 5.9852090438 0.683598894
54 2 9.7220605854 10.3938640419 10.4260827561
55 2 0.7186704907 17.7315957528 7.1385901479
56 2 16.2737923503 15.5945605374 8.3853378801
57 2 10.7274135571 2.4643550304 5.5819276524
58 2 10.1326649844 13.8913167772 2.680019448
59 2 5.5126849975 14.5592917216 10.3562201682
60 2 12.2509589531 4.5483724353 4.6739371953
61 2 7.6491286363 5.4473191256 6.1123628922
62 2 2.5916694414 16.9824717492 2.5913839077
63 2 4.739535724 5.5580912356 4.9453368027
64 2 11.3415079897 4.8734180803 1.866998268
65 2 17.7557196775 13.0084871151 9.4605750873
66 2 11.4089523075 13.5161204777 9.8068923519
67 2 5.1207823833 11.5321822323 0.2062222263
68 2 5.1429261647 11.6987341357 11.3183458143
69 2 5.1996505781 14.762191764 7.545643062
70 2 1.7688818137 7.6159013371 11.8861777458
71 2 5.9590116059 11.6361184434 7.7781208761
72 2 12.4864927803 11.7728559762 11.3595332796
73 2 3.5471747698 7.8293340159 9.0413940648
74 2 2.978790115 16.2043249038 5.6851476108
75 2 16.9240134771 11.3090308195 0.7440614793
76 2 10.1438679451 4.0011911699 9.0488547198
77 2 11.5283776792 1.1806212055 8.1078497019
78 2 10.0405514978 12.4029992595 8.1647121513
79 2 9.7780202478 17.2588086857 -0.021900087
80 2 5.7453229531 17.7870365964 6.7283792421
81 2 0.1534012145 0.8540199852 2.6897901585
82 2 11.2513337752 4.8619054139 7.1965824744
83 2 15.5311418652 4.0952167986 11.6631941964
84 2 0.2627472336 15.6634862632 10.8622660407
85 2 6.3039767182 11.124832738 14.0165527752
86 2 11.8300680263 9.1709130435 5.0100073665
87 2 -0.7789692039 5.5174864929 3.8170110117
88 2 10.7378630415 2.5161183391 11.3070407028
89 2 12.0228078545 13.2675939855 0.2524034694
90 2 17.4028771532 2.4970642156 4.7924030973
91 2 14.5476907944 6.9121659545 5.3476592811
92 2 3.8240229498 7.4537309413 6.3680942787
93 2 7.430631089 11.168633721 4.821899526
94 2 12.7268383206 7.1366513215 2.9679622653
95 2 7.8499165845 10.1223180306 7.662807048
96 2 2.7380635204 12.1653417109 6.1537959462
97 2 15.0530890965 8.9330291174 1.2796443597
98 2 14.0921346742 11.3746762722 1.2316214127
99 2 2.8126960757 5.2799101584 10.2292267164
100 2 7.2531732464 8.4718829679 11.1171976788
101 3 16.7504486246 0.2502080285 9.7204950081
102 3 3.0772862168 2.9950718616 3.2154860859
103 3 3.0214354272 8.1674383894 3.1901418393
104 3 5.4285921486 17.577567904 3.8277691494
105 3 3.0787956358 13.811685593 4.0110531375
106 3 1.4114846073 10.3175196491 1.5020568414
107 3 6.2499875099 8.5496721255 4.5100644366
108 3 3.4624313275 13.0354961651 1.4616966
109 3 0.9342885501 14.6335700004 6.7458452061
110 3 1.127089509 15.1725747182 13.658007645
111 3 15.7384433225 16.7465237479 12.927751125
112 3 12.8214925215 6.5779647889 8.2133095476
113 3 7.6918493489 14.286254613 6.5256544356
114 3 8.5574801268 1.304771439 12.6958634001
115 3 6.9260162119 3.1104851528 8.0865329409
116 3 15.2864898653 14.1030316288 0.8844515622
117 3 4.5470321389 2.834225907 5.5874079579
118 3 9.8745129519 7.6617028991 2.6032900986
119 3 13.5205967644 -1.1016621073 0.5015424267
120 3 3.0124374019 13.4693639016 9.195787776
121 3 10.3638719164 6.8494944165 5.114407926
122 3 4.1966875197 9.1664309432 11.793042564
123 3 5.7952054779 15.2082629269 1.9329737067
124 3 4.9712834959 10.6943178564 3.0263777145
125 3 13.6688462589 9.6899042196 10.6226471328
126 3 8.9334200371 7.181140422 7.8377579283
127 3 8.6351378621 4.0863965282 3.9918207102
128 3 11.7230324681 10.2163931628 2.0396509284
129 3 15.3818830966 8.8534439133 13.6761114633
130 3 1.0669507576 3.0181021271 9.8249737671
131 3 5.5608817579 4.1753060231 2.2204190061
132 3 13.1382761768 13.7898053609 6.9904950894
133 3 8.1462638917 14.3223335653 9.1770097512
134 3 14.0022107963 6.3352843001 0.8390277975
135 3 14.4708873042 11.0898749274 5.6232808161
136 3 12.2456222553 2.6929040956 13.5637227192
137 3 7.9658569744 15.8707077395 3.7849449897
138 3 10.7357812484 16.6981670257 2.4712153701
139 3 4.0916303431 9.060969458 0.5947706025
140 3 5.6341514673 0.2860914329 9.9974666469
141 3 10.4129398342 9.1074682983 12.9084189405
142 3 9.7864363857 12.1738364203 12.7147065207
143 3 16.3021154474 3.4910764622 1.7140379325
144 3 4.6899750606 3.1781081063 10.8731560608
145 3 6.6447784205 13.6669570189 12.4106233266
146 3 9.4251979829 9.3591425842 5.402575197
147 3 2.3677760033 5.9388763312 1.8855290133
148 3 12.7006523338 8.9808238593 -0.1323406068
149 3 1.209101798 5.519262456 7.790103153
150 3 15.6380861677 7.5086896095 8.4853115025
151 4 -0.3976519006 1.6471195557 12.172542624
152 4 2.7597989412 2.4347941675 13.4510647152
153 4 7.6077432873 1.6238033674 5.2357997574
154 4 7.7378078778 4.79972715 11.7314885673
155 4 14.2429884801 6.4508325371 11.3320953999
156 4 12.8586739416 13.0589111844 3.1256445825
157 4 7.6853427105 9.3834609999 1.6006981134
158 4 7.3076946623 8.2878920615 13.6298744238
159 4 9.997907595 5.7391991307 -0.4658762688
160 4 16.6008510823 13.7306487536 12.8563532907
161 4 0.7837763366 9.7532083818 13.4063083938
162 4 1.2454765387 10.1959339127 5.0118063777
163 4 12.6313184236 10.2707928457 14.5220833764
164 4 15.9117486775 13.0174315848 7.5403208463
165 4 10.69226795 4.6940820964 12.6527463093
166 4 4.7471969762 9.974118392 6.599044455
167 4 4.1777472016 17.3021669551 12.4651807929
168 4 0.2723944429 13.7203460182 2.4940999254
169 4 4.714057057 5.4912124213 12.4905660414
170 4 12.7882756163 16.0153843436 9.0065695026
171 4 -0.8965745702 7.8622757446 3.0801552993
172 4 10.2155586487 15.9444761843 12.9508106781
173 4 6.3991449812 3.4056767891 13.492537503
174 4 14.1434124602 9.2536782803 3.645893175
175 4 10.5421517651 12.0795819477 5.4141893022
176 4 15.8557301746 -0.3367302526 5.6297650341
177 4 12.7934571089 3.9930139177 9.82468929
178 4 9.7398434709 11.9428995559 0.0653599875
179 4 1.8273432569 5.3408941703 4.605409494
180 4 14.2319187034 1.2802773824 10.9501512885
181 4 4.0670582436 4.5559836554 7.923566451
182 4 8.1862765292 15.251199447 0.8696595984
183 4 10.3263460853 -0.5384279394 10.522254192
184 4 16.4577955885 8.6926231509 11.3116498236
185 4 12.3476731021 14.2937756344 12.5968091502
186 4 14.3507697631 0.2097984815 3.0388224252
187 4 6.3929225039 5.5961827464 9.6161185425
188 4 10.0222089223 7.558915136 10.4955137673
189 4 7.8018794336 0.4513044493 1.9598426322
190 4 16.5784821565 16.8284622219 1.1687185803
191 4 15.7782433236 14.230230825 4.5155117715
192 4 3.4134058666 14.4176972001 12.1308377739
193 4 1.8158957732 10.4739152138 10.3244910381
194 4 13.6249587768 2.8261219411 0.206383275
195 4 13.6970733438 2.2140923894 5.942937969
196 4 2.8348694536 16.7422983263 9.0112610499
197 4 15.9854781888 4.881699801 6.156350745
198 4 7.2124404286 12.6548100766 2.5330314408
199 4 -1.5023860489 2.3546665381 7.7957390121
200 4 12.2888848648 17.2087085918 5.3410676973
