# LAMMPS data file written by OVITO Basic 3.5.4
200 atoms
4 atom types
0.0 17.50115 xlo xhi
0.0 17.50115 ylo yhi
0.0 42.0 zlo zhi

Masses

1 183.84  # W
2 92.90638  # Nb
3 178.49  # Hf
4 91.224  # Zr

Atoms  # atomic

1 1 10.2191019219 -0.0432238152 11.6650296
2 1 4.2065195353 17.6496399073 7.3591077
3 1 12.3563861127 2.2575977717 11.29570008
4 1 2.8015496147 7.607521515 9.25192044
5 1 8.3189404623 0.7410350934 6.13043382
6 1 2.3803870652 5.9647506936 4.80902394
7 1 13.4672542828 4.4045394471 3.74606484
8 1 7.4299782986 0.8816599838 10.78062342
9 1 17.0769756775 12.3711241812 11.02793244
10 1 9.0644614505 13.2423620552 12.72058746
11 1 9.7516383298 8.4244760721 6.05180772
12 1 8.4493971846 3.269564318 7.66902822
13 1 15.780056107 13.5724078425 13.03514142
14 1 6.665899091 6.2794470973 12.02644968
15 1 9.1043166444 9.5175726994 3.54004392
16 1 8.7771587218 16.9517864513 1.37946564
17 1 0.9112182011 -0.0095780294 4.85944074
18 1 14.4758817847 1.9552010012 4.52017356
19 1 15.3438702202 15.5756477503 6.62337774
20 1 14.9331791337 8.6614204667 3.50353878
21 1 3.560617018 13.851870756 3.51078798
22 1 13.1430911571 12.5647703807 3.67984596
23 1 11.7804708694 4.6445061153 10.43735112
24 1 2.6816210592 6.0317230443 7.2057657
25 1 0.4609482639 15.6696228004 -0.34832238
26 1 0.1471253426 14.7867968899 5.46707784
27 1 3.876200205 4.1029680309 3.9403098
28 1 5.6664651182 15.3779181825 4.40299986
29 1 2.2886525123 11.3140604965 10.4043219
30 1 17.3003348044 0.4727382636 1.6938054
31 1 16.7496233172 9.7266188608 13.37279748
32 1 2.7449704969 15.9183480941 9.05374764
33 1 13.9000816989 17.6513233429 6.37828464
34 1 10.8060820923 15.5336721171 9.74703786
35 1 16.3239508963 14.0961504076 8.79301962
36 1 10.5722252506 11.7280773266 3.7969491
37 1 11.4819667047 6.8972499431 7.2235044
38 1 4.4862881939 15.2449846975 7.4307219
39 1 13.0011655812 3.6004405348 1.2244344
40 1 3.1604280216 10.3993861683 8.2347405
41 1 0.1088499775 8.8888228843 3.60196914
42 1 6.402620891 1.328276731 7.91798406
43 1 0.4576351212 0.7012712555 12.78867702
44 1 0.7341326398 14.8797152206 10.0108722
45 1 11.9779316195 2.5251059996 3.57499758
46 1 9.1410072803 1.5507704261 3.53557932
47 1 0.4037952834 16.1331467085 7.3437063
48 1 16.4898084198 15.8525906732 12.07352202
49 1 5.7890128958 5.5568846427 2.87652288
50 1 10.7721069348 8.2085222067 2.04733452
51 2 8.9568701556 7.8878316592 -0.0479367
52 2 15.8392288952 8.541991219 7.80774876
53 2 -1.1966973099 10.9290754492 2.30195196
54 2 5.1259324749 7.2511587234 10.26065838
55 2 17.0102903456 1.7759916754 3.80287824
56 2 -0.0699767732 12.7886858691 0.58676688
57 2 15.0105468175 16.6563407876 4.06534338
58 2 2.7952880533 11.9628113259 5.92964442
59 2 1.3092167536 11.2341943485 12.99367188
60 2 14.0744418061 11.8266704051 9.39774192
61 2 7.496076992 11.4660747854 3.06440568
62 2 2.4720491633 16.2337632701 12.04728126
63 2 -1.3860881048 6.4107099225 2.65919682
64 2 10.0636278307 7.8812302254 9.21455304
65 2 13.6470498972 10.7640359295 1.90823682
66 2 8.4739574235 16.2381571088 3.85299978
67 2 3.6331396835 4.5478920668 1.50873156
68 2 2.6090747672 1.7212921811 12.20495976
69 2 4.0227065319 12.7195939541 8.509221
70 2 3.7789557651 1.3415821553 5.32088256
71 2 3.5129020577 9.5883282737 11.73310236
72 2 13.2517846743 14.3923241192 8.08842468
73 2 9.1082540531 7.8320364179 13.20110568
74 2 5.9479585152 13.4095916688 2.29965036
75 2 14.4617060282 13.2812935384 1.20539202
76 2 4.632995259 8.1508417415 7.61101152
77 2 12.5003761243 0.0846934902 9.13084284
78 2 8.5835585504 13.4588897832 4.59887232
79 2 5.7753072203 10.4100258175 6.78475224
80 2 13.1469275842 4.3841005541 6.21348546
81 2 13.2410097413 2.5514637816 8.05194306
82 2 8.2976804153 6.5037670373 2.74591632
83 2 3.1534119856 4.1371269505 14.06656902
84 2 1.113499468 14.4913561265 12.92505228
85 2 1.8420270145 8.2646319437 13.1769582
86 2 9.6386383046 13.4697663979 7.79949954
87 2 1.7577829539 1.667783465 7.39082904
88 2 11.2132214954 4.3564142598 7.9625175
89 2 13.3401997841 15.2822813982 2.377872
90 2 14.7422440374 10.6005009836 5.42430168
91 2 10.6427645107 10.292289631 8.08728606
92 2 1.5471189861 3.1744319168 4.992456
93 2 1.3413747667 6.8469115603 2.46002484
94 2 6.6359775499 8.684009026 4.98493422
95 2 9.0369863951 5.1080604755 12.89423058
96 2 3.8992633955 3.198509999 7.05284118
97 2 15.8511624044 15.4084713402 1.3692042
98 2 15.0048419677 12.5756846228 6.66335376
99 2 8.3808957584 8.826757681 10.869369
100 2 11.3812351606 6.9849851331 12.39300636
101 3 16.9540201231 6.7745066776 5.39673834
102 3 3.4153102199 -0.2682756534 3.00530202
103 3 6.5610120739 6.4721744864 0.18493902
104 3 0.2187761008 3.589805786 11.73621666
105 3 7.1477050505 15.2244775499 6.51745164
106 3 2.8781069953 13.2716203027 1.30099284
107 3 4.9815745891 1.8374544891 1.9248096
108 3 4.5605993018 4.3263794863 11.58503346
109 3 6.5345893627 12.9443305965 8.40406896
110 3 13.9245574072 8.2685912289 13.43116824
111 3 7.9401133696 16.5868048684 12.75415428
112 3 12.8632668448 9.3821565012 7.69553526
113 3 10.5192655456 14.3355050606 3.44853894
114 3 8.779140027 6.0259985932 6.60518712
115 3 12.7940945995 7.2857047684 9.70863642
116 3 0.7845814548 0.6205228745 10.13321316
117 3 5.7822058236 12.5807748323 5.1728922
118 3 5.7507161794 10.5160243326 9.88529976
119 3 6.1817303013 0.4189255526 4.61898444
120 3 11.3104277828 15.7662660758 0.43453158
121 3 10.2161699542 5.432143971 1.3279455
122 3 5.0946327182 6.3387518442 5.41966572
123 3 7.8336244722 1.3139933425 0.116949
124 3 16.3066079567 0.8895123998 6.3337029
125 3 11.8035120084 12.2621436451 6.15597402
126 3 10.9489546555 6.704021671 4.3828785
127 3 6.6469302946 3.5569769538 5.52459264
128 3 15.8847028333 13.6133521329 3.86134224
129 3 11.7878495292 13.0813399244 0.85928682
130 3 1.0759689519 8.7615097185 7.43059044
131 3 10.1303212131 2.1749223391 12.97848342
132 3 13.2650370702 14.8052688287 5.31006294
133 3 11.1214433647 14.954838732 12.36182514
134 3 1.1499571636 10.3079724115 0.97757142
135 3 0.0240306541 11.0141845917 5.70762822
136 3 15.3986167926 1.5987316276 11.46369588
137 3 2.3641535235 -0.2432316827 0.42745416
138 3 9.6503845515 3.6645808495 4.81723662
139 3 6.4109351623 13.1057346024 12.55271262
140 3 8.745156819 11.2466719685 9.96045204
141 3 11.264668926 9.6852961955 11.19981408
142 3 7.733515444 8.2700247481 7.812987
143 3 16.07503519 4.110928429 5.3083905
144 3 5.0901147963 1.4497446877 12.79719336
145 3 8.4561738049 10.6220900522 12.72184242
146 3 4.9525750085 15.7887319521 13.10823234
147 3 17.9525151592 6.2599152888 9.8032536
148 3 9.2110614085 5.56977949 10.05729396
149 3 2.4860824604 4.0534893047 9.20638782
150 3 16.7862462237 6.9565886422 12.9878028
151 4 14.4108347355 4.7414488354 11.20976766
152 4 13.7349369973 11.7379516504 12.3649554
153 4 4.729952155 6.6610645733 13.9390356
154 4 6.4257799878 3.9862635372 14.02102842
155 4 15.4840073536 16.9427654836 9.43586028
156 4 13.8558629433 0.7582514997 1.69160838
157 4 7.028903919 9.2981961342 1.72777584
158 4 11.3025807922 12.8378292733 10.55830272
159 4 7.7918194752 3.7437333006 2.64042282
160 4 4.3055427921 1.7513157539 9.91960074
161 4 18.1203349116 4.5794557409 2.85048792
162 4 0.9394171041 9.1264822009 10.65343692
163 4 10.212164116 2.1479525419 9.45874692
164 4 14.2745077774 14.1975984487 10.93433502
165 4 10.6257008895 1.6272438011 1.0380531
166 4 2.6500199327 8.9832519142 5.04028308
167 4 8.536436704 14.253225329 0.96174246
168 4 1.0562869836 15.3206981726 2.4867801
169 4 6.0223830306 4.5636655033 8.69790642
170 4 10.334032849 16.114282394 6.49788174
171 4 0.6713278379 4.4055228368 7.4339706
172 4 7.3811539404 3.4535820848 11.27138292
173 4 8.8447959413 -0.6539696723 8.60077974
174 4 12.4293284558 9.5047030537 4.44214596
175 4 8.545888025 11.2710893979 6.50859552
176 4 16.4458296049 2.9885705789 9.37258518
177 4 13.9418810956 6.8732560414 5.43010692
178 4 4.6081243747 10.5523752712 3.34239948
179 4 2.6386490855 15.5242022448 5.46049686
180 4 11.1523796225 17.2771127035 3.41234124
181 4 15.1300091424 9.0733830117 11.02663548
182 4 5.9392485428 16.444689405 1.8779754
183 4 13.4940504686 17.0482092123 12.11609616
184 4 12.4015005772 4.3349245978 13.16375214
185 4 15.4041048032 3.0451372709 2.158632
186 4 1.7542338957 2.439402343 1.60807164
187 4 5.9469103713 9.0820686574 12.60787836
188 4 11.3648091062 9.1504827529 14.2886793
189 4 2.1305271719 6.0996761595 12.1052232
190 4 10.0906093536 10.3464236632 1.00557912
191 4 8.5012163397 14.5727772517 10.59511026
192 4 3.7652320633 13.5753268593 11.452875
193 4 1.031806725 12.3216143029 3.19628862
194 4 13.3974451707 7.5620255255 1.95938148
195 4 16.5690307005 10.9887494704 8.48997198
196 4 5.4425041268 16.4637164803 10.36239036
197 4 15.3206573949 6.0618376232 8.4862344
198 4 4.1856194869 7.3218411429 2.57619558
199 4 10.9424052001 1.6417162021 6.48277098
200 4 1.6094806589 13.3835770844 7.96088034
