# LAMMPS data file written by OVITO Basic 3.5.4
200 atoms
4 atom types
0.0 17.616934 xlo xhi
0.0 17.616934 ylo yhi
0.0 42.27 zlo zhi

Masses

1 183.84  # W
2 92.90638  # Nb
3 178.49  # Hf
4 91.224  # Zr

Atoms  # atomic

1 1 8.6667141023 14.7242043693 2.0349154203
2 1 4.074571866 6.0196612484 3.7562182977
3 1 14.6562873891 17.8616420217 4.5549188244
4 1 2.9566554945 7.7073439709 13.2697589631
5 1 7.8259348284 -1.7775384228 4.0820680056
6 1 10.0699013098 5.8562095731 0.8530627056
7 1 18.8477456743 9.4694814938 13.7523534396
8 1 11.4782448178 0.9853764256 8.9075258202
9 1 12.7052838257 12.5450053125 9.5344960179
10 1 9.6584276913 17.4788704406 6.1329872706
11 1 13.4006763568 8.7859370554 8.2238533764
12 1 8.8697536708 -0.6874316148 9.0900476802
13 1 17.5963464986 8.838537697 2.8352361561
14 1 9.9507888148 9.7840598613 10.9627507074
15 1 14.2590688651 11.7076852999 6.8234922372
16 1 7.8328096608 2.4833629975 2.0064415029
17 1 -0.7130639014 -1.3899826109 12.1573774161
18 1 8.5439379897 1.8149194427 7.5060639702
19 1 5.1691591888 10.9832739789 11.8581290646
20 1 12.3177565532 10.2596621144 10.3754323059
21 1 11.7161768382 10.8362666544 6.4837285134
22 1 11.7922923871 13.5169542872 7.3076177331
23 1 0.7616418923 12.7903780212 9.7241864472
24 1 9.5985590075 7.3961443551 2.9690215515
25 1 -0.4508483469 12.8945444855 5.8359982506
26 1 15.7496038263 9.7288901422 7.8428928879
27 1 1.9726729207 4.3057472637 6.9224598336
28 1 1.2273404336 2.342339617 5.5954312266
29 1 0.2545638155 8.0977805038 5.9556033291
30 1 17.6700502892 11.2675739458 11.4682529877
31 1 7.6177107724 10.7629837324 10.3491517788
32 1 -3.051846131 11.923064826 4.23596124
33 1 14.3421360561 14.5358245561 7.5017811738
34 1 13.8990846119 0.266910996 9.2867976222
35 1 16.7927481163 10.097504579 5.5143996366
36 1 8.6763012377 10.8394806879 5.5758302049
37 1 17.825426362 5.7736502783 2.3813201838
38 1 -1.4555901871 14.0007887574 3.0528941082
39 1 7.0879755567 6.0039552233 3.9693318021
40 1 5.2058200284 7.952541391 7.8519496581
41 1 4.4911380116 15.6715319169 7.3479466947
42 1 -0.1505139752 18.7521649989 12.805751451
43 1 16.1859072801 5.1683583229 10.8478113915
44 1 4.6936649274 9.6478249396 9.9016646508
45 1 8.3903924925 4.3718119993 7.4596181169
46 1 9.6596496019 14.8441901357 7.7444866371
47 1 12.0120255862 0.3020287684 2.0920534701
48 1 19.3654772396 6.1471172996 4.3736249079
49 1 9.032996057 4.9517995192 2.9305427478
50 1 0.6822515315 2.6213333634 8.6078074263
51 2 12.2302084951 18.4005649969 4.6911858915
52 2 -0.3991063547 4.3841112618 5.8749411789
53 2 13.5517202494 2.7259428936 -0.3429149523
54 2 7.6546219486 8.2578557176 9.4731343497
55 2 -0.9753129282 19.0753328549 6.9402719889
56 2 16.6604447658 18.0425820275 10.0142917977
57 2 10.2294836018 4.4243275511 5.4541467105
58 2 11.1692261785 14.9213931779 0.8209645584
59 2 3.5001273382 16.0111550463 9.3021851703
60 2 11.5335043832 2.9187965271 6.7891681518
61 2 7.7451583673 7.1463346455 6.2344804995
62 2 1.7852324425 18.0612624958 3.1572253449
63 2 5.3453593584 5.6097650502 6.2226254553
64 2 12.0142611751 6.6971114608 4.7566993191
65 2 16.765906251 15.1457025517 7.7146402128
66 2 10.0105977773 11.0752680227 8.5503781362
67 2 6.4036575588 10.1029975391 0.454432089
68 2 7.1061084907 9.0925946732 12.4042063179
69 2 5.7381419385 17.5665065834 8.6296538304
70 2 4.2430621606 9.5862280345 13.7252325849
71 2 5.0429595774 13.0982818609 6.7419157869
72 2 14.9400215001 7.3270225529 9.4703512929
73 2 7.1433052375 4.405859543 13.7577428646
74 2 3.558860963 18.2524552047 5.5505979738
75 2 23.2297133076 8.2650353229 2.1289082604
76 2 11.5224291453 5.0423606016 11.6313441741
77 2 13.7481529392 4.2293808496 9.1958224374
78 2 7.7740242422 12.3348381086 7.7167503312
79 2 11.0834805089 20.171531951 1.8970078545
80 2 3.3416566748 21.133653319 4.7298887262
81 2 2.2210625293 -4.4179729468 1.4632715802
82 2 9.6176851842 6.3557430218 8.8118442936
83 2 17.8951675756 6.4144518066 12.0624812661
84 2 0.4594189853 15.3676380437 9.7116132357
85 2 9.3791023943 9.1621186701 14.5090384317
86 2 10.5475094271 8.2226054658 7.6336732959
87 2 0.3758682094 9.9887894223 0.8665578258
88 2 10.8707481032 3.7256721876 9.3156354843
89 2 12.9750854082 13.0730540591 2.2626184152
90 2 16.4655926673 0.0214218394 2.9317356072
91 2 16.1244761504 6.9935782108 4.0594603188
92 2 3.1486397323 6.8844004334 10.0833203985
93 2 7.8909843002 9.4567423364 2.9952031668
94 2 14.0615677082 1.6699814033 1.8145699416
95 2 6.8056707076 9.8448962433 6.914974662
96 2 2.6216106539 12.1473638059 4.9372395615
97 2 17.4932654135 12.7525696144 0.4577156226
98 2 11.7552379851 11.795196891 3.8872612155
99 2 5.3648035208 3.7914677366 11.7257381565
100 2 4.9740023173 7.3507169768 11.7110180517
101 3 15.3062319301 2.3340994723 11.6966673867
102 3 4.0410426125 1.9941169575 2.4434773734
103 3 2.5151402469 9.0713359666 3.8858506656
104 3 5.3124632575 15.7981048311 4.4257302915
105 3 3.5169277273 10.7019905597 1.7817443277
106 3 -2.9156342875 13.3144042932 0.4723693635
107 3 5.0943065979 8.1719622418 4.9331807961
108 3 3.6055037336 16.2166002072 1.4020329177
109 3 2.2699889831 13.6945058518 7.0042543971
110 3 1.7507064229 14.9714624422 11.997739266
111 3 13.3495534237 21.8490565731 13.6250493033
112 3 14.227191023 6.1620044896 12.1886766603
113 3 7.166478024 15.7554965146 6.7215999795
114 3 8.9586584091 -6.0190849985 12.972392472
115 3 5.6346109169 2.6890560287 7.3141670469
116 3 17.489703798 17.1568038191 5.159028138
117 3 6.2022783863 3.3921489217 4.2571824708
118 3 13.2563686513 9.2191732249 4.9109362086
119 3 13.8351923965 -1.6340608272 2.1497714643
120 3 3.6399786641 12.8896644187 9.9378942678
121 3 12.2048291876 6.1495461463 7.1512576215
122 3 6.3839831431 7.3570437463 14.3420655912
123 3 4.7932985546 13.3863946608 2.3743004049
124 3 5.2200745944 10.7599953719 3.9925080204
125 3 11.901476859 7.4617559833 10.0330753176
126 3 9.0864629232 7.1334869679 12.490396116
127 3 9.4252503052 -0.2364500839 0.995056935
128 3 12.6377478999 7.3974393759 2.2112844591
129 3 15.6118645947 12.6712579509 9.1327116366
130 3 0.5584051902 5.6096500116 8.7776195427
131 3 5.9050454758 4.4108026785 1.8612651879
132 3 10.7161977361 15.8684036207 3.8128110645
133 3 7.0817118558 14.1862409884 9.147583068
134 3 12.8100800955 3.3850508828 4.0040621022
135 3 13.6380929057 14.3515871889 4.7642927019
136 3 12.7063790705 2.1855402721 11.2168403271
137 3 7.0069898065 13.0614316392 4.4066923062
138 3 5.6643764886 18.9629237795 0.1855555779
139 3 7.179362521 6.4014166848 0.5102661093
140 3 7.4317990917 -1.2734349653 11.4345794376
141 3 11.4880770049 10.434385985 13.0046905563
142 3 11.8418331434 13.1581420886 12.0650677674
143 3 16.3799118279 3.334578543 0.3482130741
144 3 4.6359691162 -0.3618601043 11.0263750887
145 3 1.7367034268 11.9018616128 13.5466240815
146 3 10.4967388327 9.219656105 4.9296148989
147 3 2.6611423491 6.9399933111 1.3129476246
148 3 15.3931551156 4.3893131901 2.6956314498
149 3 0.0402390151 8.498910868 9.8758435986
150 3 15.6028223509 6.8597458866 6.9224665968
151 4 -1.2203412258 5.1472926979 13.8215426664
152 4 0.2738795504 3.205845088 11.3527138605
153 4 6.6421138592 0.5951507673 5.5359459237
154 4 8.6736340339 3.8103423435 11.6273365554
155 4 14.9634048089 8.5569859718 11.6650777476
156 4 9.3987532033 11.8468474513 2.8893240027
157 4 8.9837412236 8.9077063603 0.7290382986
158 4 4.4950813861 4.7544063541 14.4957597339
159 4 12.7160299793 4.9088806161 1.5257859513
160 4 14.5796982971 14.6237182586 10.4095289787
161 4 -0.951755564 13.4019481233 12.3073399632
162 4 0.1668783452 11.64186174 3.4497848916
163 4 14.7352584668 11.5195316882 11.4831886695
164 4 12.8885334115 16.9225577898 6.8950845135
165 4 11.9404791653 7.5409379357 13.3565303964
166 4 3.9021078957 10.916072951 6.9769407912
167 4 7.0183000543 18.7826042421 12.9678924078
168 4 0.1444812323 15.6175777663 1.954636659
169 4 2.3241279353 4.5723284706 12.3351350244
170 4 11.7838159993 15.7014923319 9.4593171321
171 4 -2.0544549564 10.5811727454 2.3220563757
172 4 9.6462418819 13.9513281582 10.391369364
173 4 11.0086615663 3.062647954 13.8905344923
174 4 11.9409224074 10.0745613412 2.4449623185
175 4 9.7777330917 13.1785874213 5.610196983
176 4 19.3772018377 0.0341347475 8.0028125562
177 4 10.6500672892 0.5740384574 11.4477672549
178 4 9.5141532818 3.5627419735 0.0685348872
179 4 2.940774357 7.511557294 6.5394577041
180 4 15.837416667 3.5141706771 8.4312836793
181 4 3.2758827947 2.9264817384 9.5250241563
182 4 6.4453196699 15.6773273597 1.0921650741
183 4 7.8122801191 1.2229719625 9.9890608347
184 4 18.5818698494 11.0875183101 7.3675472937
185 4 14.1287312121 16.8933753386 11.9153178384
186 4 15.610107834 0.2322727565 -0.2977114143
187 4 6.1236348074 4.9881293367 9.2639798535
188 4 11.4071018247 6.0375484262 14.7957397791
189 4 6.258009557 0.5290150354 3.0032543337
190 4 18.5032181667 18.5627031537 0.5378409438
191 4 19.4784072478 14.9654212432 3.9660571452
192 4 3.4654454088 19.6810118543 12.6162850527
193 4 2.4845449176 9.8958993812 11.3433248481
194 4 15.9323412878 6.9648358306 1.0355207379
195 4 16.9197237536 2.2553771457 4.0079285391
196 4 1.6978688336 17.9564590031 10.9599596193
197 4 14.3506746317 2.7324549933 6.0153435201
198 4 8.2825669909 12.7674832299 -0.013167105
199 4 2.4739159167 4.2093037108 1.9025612871
200 4 9.2795055864 18.886330107 4.0082045622
