# LAMMPS data file written by OVITO Basic 3.5.4
200 atoms
4 atom types
0.0 17.616934 xlo xhi
0.0 17.616934 ylo yhi
0.0 42.27 zlo zhi

Masses

1 183.84  # W
2 92.90638  # Nb
3 178.49  # Hf
4 91.224  # Zr

Atoms  # atomic

1 1 9.8529707888 14.5274138795 0.9294002121
2 1 3.7452814207 6.4152354079 2.9010573093
3 1 15.0334714073 16.5875818315 4.9866104988
4 1 2.3349838424 7.5160490837 12.4953193029
5 1 7.727455815 -3.0572689756 2.5753120083
6 1 10.662365847 6.8694820613 1.4453981334
7 1 18.1885696838 9.5511347497 12.5104823973
8 1 10.9788119619 0.4330811404 9.2099630205
9 1 13.3281393358 12.7577898643 9.413567043
10 1 9.9037595287 17.274543955 6.7882889358
11 1 13.2645624635 7.9217963178 8.2271119707
12 1 8.1089526348 -0.3182571357 9.8448825144
13 1 17.5194469962 9.4172934408 2.6862390558
14 1 10.6055718467 9.5911951291 11.4010901847
15 1 14.4658613691 12.4175487329 6.1353937017
16 1 7.5373726206 3.1788827229 1.6776307815
17 1 -0.0456571032 -1.4059439054 12.3727498293
18 1 8.144252214 1.3701300879 7.0808091714
19 1 5.937884674 12.5095272738 11.9640082287
20 1 12.7586011241 9.9787858225 10.5681479991
21 1 12.1636732111 10.4446962956 6.981127212
22 1 11.4401326951 13.3227843163 7.8766708449
23 1 1.4823517192 12.8361341315 10.3819224417
24 1 8.5538709456 7.4385964095 3.0048652434
25 1 -0.3646745857 12.8492682605 5.1098655918
26 1 15.2186525137 10.2766022058 7.6712458308
27 1 3.0089235283 4.3344945766 7.7207165253
28 1 2.5018036994 2.3398339605 5.734453875
29 1 0.0841118752 7.9073088559 6.3735289326
30 1 17.389276704 10.5229309855 10.5952439145
31 1 6.5878346762 11.9804201019 9.547981416
32 1 -3.3288142822 12.6070667761 3.7100264871
33 1 13.8679487951 14.960920645 8.2724706396
34 1 13.5247797292 0.6487175215 10.0732723968
35 1 16.6335873976 10.5030072901 4.9135506081
36 1 10.0098104765 11.3415705298 6.1884324069
37 1 17.1706103865 5.3789837433 2.3066049999
38 1 -1.125563354 14.9549594269 3.7400986332
39 1 6.4689786837 5.0216131384 3.3903646845
40 1 5.5602281696 7.7325890373 7.6162483338
41 1 4.4831469703 15.8304553356 6.7215919482
42 1 -0.3320848433 18.5207741461 12.7900422282
43 1 16.4752687683 4.7583773872 10.7830596693
44 1 5.5214656298 9.7146709863 9.9489753483
45 1 8.0851003632 3.7728003048 7.5886975932
46 1 9.61656968 15.6777004864 8.7386795733
47 1 11.0582523547 0.7937480498 1.6553426559
48 1 18.8543529054 6.4948778669 4.3155404328
49 1 9.7215748866 4.8702428041 2.5171962534
50 1 0.5755524567 2.9107043647 8.2094029542
51 2 12.2912435961 18.131924018 4.7244921153
52 2 -0.2194016484 4.3964284936 6.3234423642
53 2 13.5809215507 2.081496774 1.8273033564
54 2 7.8283982043 8.4841122912 9.0196322007
55 2 -1.7993624568 17.6407136899 7.346487957
56 2 16.5242771408 17.9542863066 10.2719747901
57 2 9.5102386229 4.8280557084 5.1764311197
58 2 11.4520915985 15.865831196 0.1704000921
59 2 2.897883641 15.8845347425 9.37324569
60 2 11.2489912515 2.0034983272 7.2424991073
61 2 8.03177179 7.2979489744 5.9762162946
62 2 1.4825891955 18.346046576 2.7293337435
63 2 5.9261031732 5.407246062 6.0402320961
64 2 11.935636094 6.3076496728 4.6150749522
65 2 15.8771278788 14.4683529321 6.5346702039
66 2 9.838332526 10.9772451118 9.0159010278
67 2 6.975077259 9.5210777939 1.9607357973
68 2 7.2361825944 9.8979137015 12.0223230753
69 2 5.5412941937 17.4768154252 8.349326799
70 2 4.2758823325 9.0469042741 12.2290360563
71 2 4.4169686054 13.0008730762 6.717611805
72 2 14.8020594142 7.2339322073 10.2090647718
73 2 7.0463102746 4.8447570904 13.9662468255
74 2 3.1180345375 17.2130117041 4.7193470109
75 2 23.2045198588 7.0119273045 1.6211314314
76 2 11.3604289292 5.0741882354 12.1376470482
77 2 12.9291991088 4.6115594448 9.5132380122
78 2 8.5664002852 13.054852419 7.810616784
79 2 10.4789899478 20.4559737342 0.614457855
80 2 3.5723629335 21.6937664709 4.2133539759
81 2 3.2604079037 -4.6670844974 1.6856701128
82 2 9.2383212466 5.535130557 8.6067067155
83 2 17.3216488178 7.6710837403 11.5279390731
84 2 0.7227814022 15.6894314265 9.4487982426
85 2 9.216181341 9.6248004877 13.5708097074
86 2 10.7124414534 8.3810135891 6.7511547408
87 2 2.1369293376 10.4842561779 1.6966222698
88 2 9.5919856009 2.5921088077 9.531170637
89 2 11.7636696259 13.7135983802 2.2889103552
90 2 16.2857429736 -0.0025567456 1.672015212
91 2 16.0238464617 6.8485830925 4.194676131
92 2 3.5327369877 7.3111895096 9.4493185863
93 2 7.9717420874 9.8331679456 4.7692543545
94 2 15.4714817659 1.1353248972 3.9248058522
95 2 6.9235792614 10.2282948111 7.3389097914
96 2 2.4873930473 12.3756752186 4.6022933496
97 2 19.5205806023 12.6932928596 -0.1521829902
98 2 11.7202280284 11.9471751857 4.579692426
99 2 5.4441764408 3.958958094 12.1542215379
100 2 5.5772138889 6.9814304539 12.1940631264
101 3 14.7249166219 2.893899219 11.905624482
102 3 4.5417051304 1.774915966 2.8902822636
103 3 2.2378979761 9.042103131 4.0096785171
104 3 4.3529662842 14.1711658257 4.3896748269
105 3 4.247885501 9.8267148627 0.9586607742
106 3 -3.3321114676 13.6948819733 1.2572514045
107 3 5.6879514697 8.1724944494 4.9823433423
108 3 3.8915335072 16.0727188315 1.7052343596
109 3 1.3857175511 14.2268201866 7.0644274329
110 3 2.2405403401 14.8431340005 11.9550469887
111 3 12.279276589 20.3830718664 14.273940723
112 3 14.3520406488 5.653478477 12.3558891717
113 3 7.3385126696 15.6068118818 6.364306464
114 3 8.7217060664 -5.5889391917 11.9491262298
115 3 5.1606581373 2.5110453668 7.174905573
116 3 17.8152832361 16.9381741448 5.4072054528
117 3 7.0714247996 2.916746973 4.5169629006
118 3 13.7769502842 9.4750024647 5.4700250133
119 3 13.3584638928 -1.0303246233 2.5928937921
120 3 3.9462901091 12.5606079263 9.6615249765
121 3 12.1106467682 5.348388414 6.6566495883
122 3 7.1932000942 8.1882224958 14.6429273886
123 3 6.3005990235 12.1284699965 2.3494295823
124 3 4.4524156383 11.150212574 4.2297259923
125 3 11.3966828176 7.0174209692 10.1056685475
126 3 8.4499486519 7.5055877959 11.6426645028
127 3 8.7534595329 -0.4163390634 0.7410501645
128 3 13.1567824136 7.5061187703 2.2774137606
129 3 16.5776966175 12.8687244024 9.0753220803
130 3 0.7004501767 5.64159057 8.5676171103
131 3 4.7616204886 4.0312238143 0.8533814214
132 3 10.2296951812 16.3474173932 3.5224597026
133 3 6.0929612589 14.7239195034 10.0189123314
134 3 11.7781468699 3.1446628856 3.9535308534
135 3 13.1412714079 14.507227868 5.2733393217
136 3 11.8978634496 2.5953283024 11.474550795
137 3 7.330629444 12.2459243857 5.5119889785
138 3 5.5052513561 18.5696105773 0.1857407205
139 3 7.7629084854 6.1321777872 0.9076379253
140 3 7.8316516997 -1.3092767937 12.5332570506
141 3 12.8043183011 11.3041572709 13.1423876175
142 3 12.3926334555 14.1213113118 12.5493995409
143 3 16.1231969848 3.144523888 1.6210980381
144 3 5.3641980268 -0.427737572 12.0247886844
145 3 3.1187802623 11.5318473344 12.2393220381
146 3 11.0197072078 9.0203287768 3.976233225
147 3 1.8490106764 7.4533340318 1.253368905
148 3 14.3824298599 4.6646672779 3.9944384913
149 3 -0.611769702 8.6396997672 8.7546572106
150 3 15.35220191 5.993713971 6.9978179442
151 4 0.9212063911 5.5638172676 12.9912757491
152 4 0.8305466539 2.9388479452 11.1972092937
153 4 5.6828185998 0.4399723565 5.490103686
154 4 8.1651700329 4.3310236882 11.3130806631
155 4 14.5434935598 9.411967137 12.5789031555
156 4 9.1186945133 11.627975368 3.0641129889
157 4 9.616300317 9.262380341 1.4672179074
158 4 3.4601553958 5.5007127053 14.0311118313
159 4 12.858375863 4.4362321942 1.3587623868
160 4 15.3110547419 14.9893071631 10.7748356181
161 4 -0.0060061413 12.7842758676 12.5377211853
162 4 -0.4441755808 12.342087477 2.2087317738
163 4 15.1459433752 11.9990614606 11.6221939872
164 4 12.989193049 17.1404068578 7.414394712
165 4 11.9638672307 7.9330565335 12.7706352258
166 4 4.1188855017 9.95278957 7.2032700111
167 4 6.5688219525 19.3574877839 13.1756388903
168 4 0.8548284263 15.1454553862 0.5119028037
169 4 2.9422233498 5.1338818069 10.5510793731
170 4 12.4930210875 15.5377799259 10.4589011841
171 4 -2.6994797924 10.2198873055 2.9069746866
172 4 9.5084776342 14.4128224183 10.7960813655
173 4 9.5211431527 2.927508101 13.8502055307
174 4 12.6482174676 10.7646652687 1.855386699
175 4 9.9653936055 14.0220427074 5.2780017027
176 4 19.8143021054 0.6640479536 7.7836658547
177 4 9.8439882665 0.1074460328 12.0244255851
178 4 9.1493777511 4.6482421294 -0.4195119966
179 4 3.214594186 6.6626969564 6.0315899946
180 4 15.3101964449 2.917192153 8.9578059852
181 4 4.0215477133 1.788269602 10.2791361735
182 4 6.5568986354 15.0941536412 0.3567680994
183 4 6.8049586312 1.9379566383 10.3058144613
184 4 19.2114899097 11.2717162155 7.6287357372
185 4 14.6806750394 17.2707281271 12.4963578768
186 4 14.5295576842 -0.5768955718 0.0406362645
187 4 5.3415653755 5.2026857997 9.7273072413
188 4 9.590841381 6.2625499694 14.3216242419
189 4 6.6543644989 -0.2139772182 2.4144514098
190 4 19.0744151888 18.761705978 0.0375446367
191 4 19.1732421367 14.9671935067 3.1645613034
192 4 2.9152327976 20.07652594 13.0535884923
193 4 2.2240584651 9.6048468436 9.9788276904
194 4 15.988102055 7.2138360421 1.0948843032
195 4 17.9441061851 2.8843298766 3.9816454758
196 4 2.3152637988 18.0776980382 11.8814583003
197 4 14.4085540113 2.7330620728 6.2417090922
198 4 8.6306707361 12.0205585243 -1.314597e-04
199 4 1.9734290395 4.1210502706 1.7525484387
200 4 9.5277533787 18.7691778482 4.3378323627
