# LAMMPS data file written by OVITO Basic 3.5.4
200 atoms
4 atom types
0.0 17.616934 xlo xhi
0.0 17.616934 ylo yhi
0.0 42.27 zlo zhi

Masses

1 183.84  # W
2 92.90638  # Nb
3 178.49  # Hf
4 91.224  # Zr

Atoms  # atomic

1 1 12.4324410319 13.2271474429 1.6309439892
2 1 4.0818036174 5.2561484378 4.3446221928
3 1 14.5401290778 16.3215601383 4.2267307401
4 1 3.6773063047 8.8453728912 13.5109989255
5 1 10.1300180401 -1.1419946684 4.8582301683
6 1 9.2738637633 6.2051215833 -0.2837876763
7 1 19.2716226714 7.9019140222 11.8776692175
8 1 11.9021507067 1.8405594808 8.0091839133
9 1 13.7793578144 13.1675118311 11.3411914812
10 1 10.9411296924 17.217674378 7.2686359164
11 1 12.8978436088 9.9573646878 8.0348840733
12 1 8.0109896214 -0.2932921785 8.7640897611
13 1 16.5566628791 8.1951327381 3.2323602699
14 1 10.675836988 9.8373197285 9.943856874
15 1 14.5558086776 12.0613399648 7.1890102266
16 1 7.1701803988 1.6612508031 0.3892563987
17 1 0.3411438231 -0.0677906667 11.0219811222
18 1 9.0670277454 2.0402932317 8.0202662619
19 1 5.6136550454 14.0247631144 11.7242485617
20 1 12.6096770772 10.4176528926 11.2961959116
21 1 11.678961946 11.8276264955 6.520671648
22 1 12.0554259601 14.2857155348 7.6215489918
23 1 1.6763566194 12.5134222018 10.8266637105
24 1 7.9398006482 7.3255362122 1.6014860262
25 1 -0.1914282474 12.3468216756 6.8506536711
26 1 15.7647450526 9.6941507816 8.3519822004
27 1 1.836215321 2.8575660543 6.8474064897
28 1 1.9522032766 1.1730906709 4.6785234903
29 1 -0.1299594174 8.6204892053 6.4574539041
30 1 18.0769086234 10.4836048799 11.2473064296
31 1 7.7540209183 11.3496434898 9.8350746063
32 1 -1.3415067983 11.2218696292 4.454205477
33 1 14.4284842249 14.6672319094 9.5402781312
34 1 12.883961641 1.178739717 9.9508107117
35 1 14.7287224082 9.8892549784 5.9389523307
36 1 8.8134906449 11.4470468132 5.3325004137
37 1 15.0326176907 5.3235238734 3.562756539
38 1 0.3333837399 13.4615536101 4.7986873782
39 1 5.5067667647 5.7517959431 2.209782606
40 1 5.4895793316 6.8703438817 8.131995594
41 1 4.9739706068 14.3508264897 5.9470153332
42 1 -0.129049679 19.5424099214 13.2980781723
43 1 15.2855181152 4.6595835592 9.5563411539
44 1 5.5414384764 9.458643556 9.4972143006
45 1 8.2657740009 4.3807725005 7.6786363176
46 1 9.4923144496 15.1541375397 8.5204632345
47 1 11.5031703131 -0.3232044992 3.1860940641
48 1 18.0180617217 6.5428158345 4.3109346936
49 1 7.4941611002 4.8484732064 1.3472881953
50 1 0.5272855809 2.1928449576 9.5310856743
51 2 12.6777397494 18.7510570699 5.2417065672
52 2 -1.4099425971 4.6103000102 5.6950121607
53 2 12.5684842813 2.3302714887 -0.0615032727
54 2 7.8278476751 8.3938235665 9.9592076472
55 2 -0.4901075081 20.0801585518 6.8954746656
56 2 16.0059858855 17.0362647048 9.5131399458
57 2 7.8922442633 5.6355412672 4.7574808914
58 2 11.6614972223 11.2999660261 -0.1144050231
59 2 3.6827853473 14.9516479718 9.5195966883
60 2 10.9121900026 4.5599562741 7.0935975372
61 2 7.8982033674 6.8402404172 7.0829729727
62 2 3.3669787272 17.8729799281 2.7119180808
63 2 5.6012203087 4.3062393046 7.528401129
64 2 10.7315413809 6.4976553527 5.5369113705
65 2 17.0591913827 15.0033927827 7.8323084799
66 2 12.1212585046 12.48849195 9.1202407185
67 2 6.5541960216 11.2503614966 0.3333775722
68 2 6.0456569724 10.8267295511 11.6717433039
69 2 5.4221776468 16.5791285218 7.6668277704
70 2 2.9091331103 11.2374495171 13.1694395721
71 2 6.5109631847 12.3839817792 6.4372885779
72 2 15.3676096805 10.77737113 11.2217026452
73 2 5.2140633442 4.2527780759 13.1666493294
74 2 4.4037004116 17.5196918715 5.5170842043
75 2 22.5189558152 8.4259158067 1.7562060618
76 2 11.465108751 5.6482901138 12.3529742325
77 2 12.9435512725 4.3512473999 9.4482216798
78 2 9.427716676 12.2170105928 7.720366107
79 2 9.6621492686 21.1688998712 0.374651691
80 2 3.9265441687 20.7092145179 5.3277809682
81 2 2.3552871827 -4.5235302681 3.3694055277
82 2 10.7232214315 6.4610801314 8.8174763484
83 2 17.6813765684 5.1703102792 10.7797571142
84 2 0.9203015854 15.1173433399 10.4555512866
85 2 8.4845097292 9.6605315056 12.3629059917
86 2 9.976378997 9.3398832235 7.2531625602
87 2 0.0129754004 5.8726371879 1.7824599588
88 2 9.7836624232 3.4992290507 10.594747242
89 2 13.7425583295 11.2325653984 0.9372704634
90 2 18.394107686 0.0168766704 2.4649010775
91 2 15.0867871202 7.241944565 5.2574119857
92 2 2.9985760459 7.4551508662 9.1338136155
93 2 7.7032594847 10.4708650179 2.2788530541
94 2 12.3926887727 2.9138155152 2.4965300277
95 2 7.0207333052 9.5022019538 7.2263697207
96 2 3.423593211 12.0136558572 5.4146344053
97 2 18.8330177413 8.5889369242 1.7520361263
98 2 13.9356573669 11.5120434342 3.9875269236
99 2 3.6173405516 5.6686184701 12.0666837495
100 2 5.7535770152 7.556927065 12.5666495052
101 3 15.2426302179 2.3190956581 11.2732728906
102 3 3.7099023892 2.8734686845 2.0859285471
103 3 3.0198754477 8.0200408498 3.8394158025
104 3 4.6792220364 15.0725327304 3.3427111773
105 3 3.979343353 11.1730400686 2.1667640043
106 3 -0.172586408 11.5566012407 2.2462434399
107 3 5.7678062128 7.460499015 4.9408122219
108 3 4.6625144885 17.828184293 0.2862012933
109 3 2.4428308366 14.2860639977 7.51197078
110 3 0.5758082546 16.8430860389 13.5673228551
111 3 15.5419614814 17.7296260034 12.9456998124
112 3 14.2508588453 5.7898899204 12.0550468185
113 3 7.4475565583 16.0319232975 6.2301651552
114 3 7.4309138407 -4.5077661071 12.7757562363
115 3 4.0582501289 2.115472969 8.1721504032
116 3 16.7872105855 17.244813441 4.7950703343
117 3 6.3706155898 2.4742222751 3.070776009
118 3 11.8566172744 9.3772889071 4.8494160279
119 3 15.0192106754 -4.4727894463 2.2822071786
120 3 4.3981863112 12.1250778559 8.696858058
121 3 12.7497121477 7.6210708502 7.2091383552
122 3 5.584556627 10.1211810337 14.3168257515
123 3 6.8113755994 14.3831815745 0.3320574801
124 3 5.5998171199 10.1132687401 4.6586616627
125 3 13.612736148 7.5414803611 10.3059252087
126 3 9.3298688773 7.1002011804 11.2532517051
127 3 9.0715834846 1.2415928856 2.6560823697
128 3 11.5686432959 8.1017258162 1.1626198647
129 3 16.4673208885 12.7655599892 9.8521702851
130 3 0.2881850293 5.2239142052 8.0386913322
131 3 4.9196711643 4.0060213809 -0.4414205376
132 3 12.5505343873 14.4651980916 4.7292356547
133 3 6.8259557263 14.0847567023 9.1916330577
134 3 9.928253409 5.0514978006 3.0435494793
135 3 15.3644861981 14.0451187769 5.7703719621
136 3 12.4673507483 2.9464413723 11.9148824574
137 3 7.2822115911 12.7821153268 3.0262331511
138 3 8.017518281 16.5040368692 0.7752060153
139 3 6.2371782372 6.673106098 -0.4216047843
140 3 5.6201158798 -1.2559915581 11.0617254897
141 3 10.2359347469 11.4101102686 12.2147010312
142 3 9.4436751518 13.2005870962 10.4748665631
143 3 18.8175090258 3.4033790124 0.4749939078
144 3 4.9365263421 2.1013894635 11.1712998972
145 3 3.3805691348 14.5374261116 12.6903890124
146 3 8.752869718 8.5139234907 4.8939284514
147 3 2.7952487928 6.1797359337 1.7654944716
148 3 12.8169237458 6.3654527711 3.1854447969
149 3 0.1381995621 8.0963216455 9.6570156129
150 3 15.5064260115 7.1542878103 8.0452228926
151 4 -0.8332223138 4.2781158074 13.2305890449
152 4 2.3012285637 2.9598423978 11.8603347132
153 4 6.5762221218 1.9109350802 6.8514538422
154 4 8.0622163183 2.9243617166 12.3414214188
155 4 16.1928152323 8.185099718 12.5943689031
156 4 10.1910867895 11.8179088185 2.4151205439
157 4 8.761714652 9.1988084015 0.2483028567
158 4 4.4942842198 6.2885763468 14.6443184943
159 4 12.1931866844 5.0161596404 0.0912009066
160 4 16.1301285437 14.8359299077 12.0364902885
161 4 0.6716801379 13.2612069661 13.6922099928
162 4 1.4163701355 10.1641050457 4.8325502979
163 4 16.7489126041 11.4244837488 13.576756251
164 4 14.0639024805 16.8347313841 7.2282389001
165 4 11.3780028778 8.3382999233 12.9899666472
166 4 3.8661216084 9.6456783162 7.0431178578
167 4 2.7920421585 17.5204929135 12.7565081691
168 4 2.3512798587 15.6114999241 1.4353822569
169 4 0.8603705376 6.0700511409 13.5838483116
170 4 11.410712063 15.6763483867 10.3213981422
171 4 -1.8773355352 7.3949102889 0.3071600274
172 4 8.5025536977 16.1646099924 11.4323091159
173 4 6.0162920098 0.3187479434 13.4242942788
174 4 14.2440206562 8.9429463942 2.7283323672
175 4 9.4846697572 14.2204872511 5.72606328
176 4 18.043999486 0.2682926921 7.3084737006
177 4 10.0268830472 0.8995816046 10.6468171188
178 4 7.4141434004 4.3637714545 -1.6104481116
179 4 2.387928895 6.4193602368 5.9765578362
180 4 14.6043364601 1.8956594367 7.8854143944
181 4 3.0870410655 4.7559205296 8.4947516616
182 4 9.7647478259 14.5877386658 2.6834365548
183 4 6.8554596865 1.330034827 9.8783252703
184 4 18.7236828209 10.9429794705 8.2579834425
185 4 13.4572367566 16.3414936991 11.6557043751
186 4 13.7385998044 0.8661673897 2.2133142645
187 4 6.6301429764 5.2313716295 10.313283993
188 4 8.1030398633 6.158909899 13.5790586979
189 4 6.8355421571 -0.7827600157 3.0903360288
190 4 19.2863072667 18.5820150129 0.1128173619
191 4 19.3983743975 15.9150321217 4.3503569637
192 4 1.6194812288 20.8560268229 14.7825240636
193 4 2.9950850743 9.7724076688 10.385941896
194 4 14.7878918759 3.9659654057 1.1583649665
195 4 15.4766156928 2.5824889047 3.6839243394
196 4 2.6490106237 17.3454505288 9.8205523251
197 4 13.2218227246 4.122572726 5.5724617086
198 4 9.7200064509 13.1631763036 -0.0138117225
199 4 1.5158772731 3.6568477592 3.3448077693
200 4 10.2884576977 20.8156010683 5.0988732783
