# LAMMPS data file written by OVITO Basic 3.5.4
200 atoms
4 atom types
0.0 17.616934 xlo xhi
0.0 17.616934 ylo yhi
0.0 42.27 zlo zhi

Masses

1 183.84  # W
2 92.90638  # Nb
3 178.49  # Hf
4 91.224  # Zr

Atoms  # atomic

1 1 10.4669540585 15.0086017578 2.5425413454
2 1 4.3222081744 5.3982579023 4.0974606261
3 1 14.4592735167 18.3604943997 3.7809394845
4 1 3.0739060557 7.9586197617 13.3674918528
5 1 9.1056532256 0.0450440339 4.8696117885
6 1 9.9755564623 6.1165506859 -0.0896774958
7 1 18.4469576071 8.3934356417 12.3761301612
8 1 11.963819665 1.7344216815 7.7246112831
9 1 12.5688929942 12.5955188759 9.1406841813
10 1 10.9623931556 16.5818300787 6.5057025729
11 1 12.8806054389 9.6935697751 8.2416148077
12 1 8.4543033818 -1.4737391525 8.030332017
13 1 18.1138486914 8.2713999688 3.9931391115
14 1 10.1962023948 9.177950304 11.4206328738
15 1 14.0792757218 11.3343024875 6.6498745527
16 1 6.6706887023 2.3767690958 1.5831746622
17 1 -0.5575266337 -0.6369985608 11.8465940043
18 1 9.2410180469 1.7875184159 6.9240052248
19 1 5.7244937473 12.5309593311 11.1962687862
20 1 12.4214256916 10.2340641808 11.4322917852
21 1 11.3499373403 11.3644702538 5.5403335497
22 1 12.2628697622 13.8757560917 6.4891948698
23 1 2.1957427671 12.558766252 10.6695499248
24 1 9.5488168897 6.9540512721 2.2650409089
25 1 -1.1682518276 12.3413369956 6.5114352303
26 1 16.0559527954 9.9230417914 8.0240143428
27 1 2.5583100152 4.4056007502 6.3038024541
28 1 1.4992655614 1.5281634991 5.4421593612
29 1 -0.3693620995 7.6901429727 6.5242853103
30 1 17.3487984509 10.3657046061 10.6371740637
31 1 7.8231892293 11.4095807035 9.9214694139
32 1 -3.1720667311 12.0545345432 4.2306635409
33 1 14.425674324 13.7019107777 7.8391503021
34 1 14.1866169338 0.9777831747 9.0032724426
35 1 15.5172003521 9.3755444783 5.2997504631
36 1 9.0325521103 10.5780927769 6.3184997331
37 1 17.1013735456 5.4418096057 2.8220529885
38 1 -0.5464376546 13.4247324564 2.7014013048
39 1 5.9543321959 6.7698346928 2.6516917848
40 1 5.0880141814 7.325996895 8.5474103595
41 1 4.0162640425 14.8153868009 7.1984985735
42 1 0.7317382038 19.2202402408 12.4331984655
43 1 14.8556050281 5.6958098554 10.3941828552
44 1 5.6389624758 9.8027850766 10.2044235258
45 1 7.5774048129 3.7561628723 6.4391810058
46 1 10.765866039 14.4565647369 8.627395767
47 1 13.1909643745 -0.1129175002 1.4981641971
48 1 19.4386891654 6.1637173841 4.4115093954
49 1 8.006719629 4.995089435 2.1062261784
50 1 1.5797293219 2.2230349213 7.7758133568
51 2 11.5489736368 18.9725868439 5.057643543
52 2 -0.188788526 4.7690839027 6.0209333049
53 2 12.8703053461 2.4309864434 0.4061796159
54 2 7.5553949202 8.2588068559 10.0088347407
55 2 -1.0933361682 18.3917688618 7.3097096754
56 2 16.8337871164 17.5880508605 9.5733670872
57 2 8.7698732303 6.1712100423 4.6076705163
58 2 11.141591375 12.7920116395 0.9192494943
59 2 3.5715026986 14.8505954767 10.3865903178
60 2 9.6463526924 4.2168886817 7.6542372282
61 2 8.2603645452 6.49627718 7.6078082829
62 2 2.2596048575 17.7693391531 3.2874469566
63 2 5.0728646752 4.9543062327 6.6466645689
64 2 11.7741784794 5.763548376 4.3589521455
65 2 16.4289355272 15.3612955952 7.860837771
66 2 10.1687985493 11.5466834354 8.2955969793
67 2 6.6567130124 10.6789248841 0.5590516071
68 2 7.4999463251 9.7934311893 12.0776840943
69 2 4.3594211288 16.9611654768 8.7006260058
70 2 5.1039368949 10.3848640788 13.1819874216
71 2 5.170749117 12.9251024669 6.0601573287
72 2 14.2968829092 8.7871036488 10.3078117188
73 2 6.701752642 5.3115679649 14.0989243242
74 2 3.9228609963 17.4979007812 5.9796951156
75 2 22.3406439037 8.2573925684 0.8226004074
76 2 10.8084028308 4.8955093632 11.9673505176
77 2 12.79989786 3.691987729 9.50415588
78 2 8.6248284323 13.3415895125 7.472139759
79 2 10.5719710685 21.4757301349 -0.1581050172
80 2 4.4236568744 20.028596957 5.083026678
81 2 2.3224081702 -4.0476334598 2.1318468708
82 2 9.3395953628 6.3812275023 9.8652667992
83 2 18.5221463291 6.2135423016 11.8203595515
84 2 0.8470331092 15.0269201981 10.1975774766
85 2 9.1861781169 9.4951387964 14.5384228449
86 2 10.6743869381 8.2617857032 8.6536572726
87 2 1.6076324313 8.3179673389 1.1221125237
88 2 10.0480194923 3.3281569944 10.02217473
89 2 14.5601309923 12.3862415033 1.7412885561
90 2 17.2522587096 1.5538509267 3.6263035662
91 2 14.9155225108 6.6447410726 4.6335477876
92 2 2.8641817415 8.0997055062 9.9017255196
93 2 8.044713542 9.1657135816 3.0248957283
94 2 12.8840107922 2.9057906494 2.8282966902
95 2 6.8161600063 10.4186769649 7.8376370361
96 2 2.6359148996 12.2472933976 5.3521775214
97 2 19.288256052 10.6051985439 2.2157536662
98 2 11.833293687 13.1045327014 3.30492222
99 2 3.7789926571 4.9763881787 12.117059022
100 2 4.9313085586 7.3686925916 11.5614591831
101 3 15.677019768 2.8911374122 10.8526737096
102 3 4.2029788792 1.6679103565 2.1039389487
103 3 3.7383639554 8.0828048767 4.0543092966
104 3 4.2192585117 15.3650675569 3.8669044062
105 3 4.399255483 10.7426039346 2.8180846809
106 3 -0.7732574415 13.9341872337 0.3218594199
107 3 6.2417153024 7.5443716523 5.6208473322
108 3 3.8151505333 16.1898192965 1.2560154297
109 3 1.5045464135 13.5144320707 7.7974818042
110 3 1.2175591595 15.1300322889 12.6301212918
111 3 15.8697669953 19.0247326162 13.6324905141
112 3 13.3538382144 4.9186317652 12.8937609726
113 3 6.8880316358 15.6313947277 5.3016982647
114 3 7.7947877368 -4.3680439133 12.2930379087
115 3 4.242108556 2.0881337777 8.0717291415
116 3 17.0381472504 16.4353949522 4.3685317956
117 3 6.6225567723 3.5231237792 4.0646033097
118 3 13.0236441966 8.5114372128 5.5742032326
119 3 14.2998173619 -2.2464295049 2.6604222306
120 3 4.0968054937 11.9857136382 8.6726191719
121 3 11.370918404 6.2258262373 7.3427855277
122 3 5.9819826785 7.884530865 14.3464481448
123 3 4.6545493442 12.5128739628 0.6391934136
124 3 6.0372820582 10.4062535031 5.1433277919
125 3 12.545145191 7.1812399577 10.4414656545
126 3 8.5780979294 7.3013893854 12.6282381633
127 3 9.0469858405 1.3334963784 1.3507856151
128 3 12.4222316663 7.3716328578 2.5270853199
129 3 16.6426978188 12.5458540964 9.5226815529
130 3 0.3468650986 5.0454729853 8.9012102595
131 3 4.8153612981 4.7972544372 1.0857814587
132 3 12.1227564725 16.2626339604 4.2993666627
133 3 6.6439391497 14.537916567 9.249868014
134 3 11.2311371935 4.612037216 2.0579348169
135 3 14.7766506865 14.3939004218 5.2519874766
136 3 12.4235443041 2.0222887251 11.4329748684
137 3 6.1565659659 13.0223458286 3.5753711751
138 3 6.135220584 17.9452859912 0.4293862686
139 3 7.3162763993 7.6395420293 0.5578532526
140 3 5.826589165 -0.9934166181 11.2914870336
141 3 10.6057628143 11.1653722981 13.3684615266
142 3 10.2088858826 12.2055009213 10.882322733
143 3 17.5020245531 3.3546969055 1.1598566748
144 3 5.1537649833 2.2963025166 10.9878776862
145 3 2.9325305127 13.2045965342 13.0574414028
146 3 10.2630651776 8.5801460741 4.9220320836
147 3 2.3960052022 5.8239594852 1.8356664759
148 3 14.3632962841 5.486311038 1.8857310639
149 3 -0.284850496 7.9343848503 9.688233276
150 3 15.0859006361 7.1290973564 8.0611071132
151 4 -0.969984158 4.4608009466 13.0113248328
152 4 1.8415030438 3.0946512287 10.7072636415
153 4 6.5104540553 0.9280200927 5.9585985813
154 4 8.0257806231 4.1408605129 11.7901225524
155 4 15.0539891457 7.839625124 12.6113234001
156 4 8.8188340372 11.9710901737 3.6050163942
157 4 10.2361699329 10.3927675639 0.6927296367
158 4 4.194621758 5.2636384535 15.0561491865
159 4 12.613573943 5.6833883314 -0.3346663845
160 4 15.8218337842 14.8080248604 11.381899182
161 4 0.1628951564 12.2506869476 13.0103695308
162 4 0.2319426152 10.8322082414 4.8080793495
163 4 15.3476995502 10.4700933962 12.798831852
164 4 13.7824298554 17.2746302779 6.6415858284
165 4 11.8259040878 8.0130537976 13.6625398344
166 4 4.469442405 9.6418545607 7.0665197979
167 4 6.0959670602 20.2290977492 13.6444296756
168 4 0.8213167898 15.7788208067 1.2341385912
169 4 1.5532186549 6.1923195335 14.384548632
170 4 13.1664292705 15.3710853254 9.4212542652
171 4 -1.9072524363 9.3275899508 2.7908323665
172 4 9.5093299415 15.3089301397 10.7665405533
173 4 8.2437785541 1.1293159371 11.4185248689
174 4 12.1574516146 10.4041012423 2.6898155205
175 4 9.4348843018 14.5817356955 5.0492347719
176 4 19.1148918564 -0.8286087911 7.5284543892
177 4 10.4168823279 -0.032369883 9.2119336479
178 4 8.0560234375 3.7562063862 -0.4079612964
179 4 2.3013659758 6.9875703078 7.0181329062
180 4 15.1348299086 3.6349962428 7.8498978723
181 4 3.4431404324 5.2614867211 9.3825518532
182 4 7.4229712461 15.5471498446 2.5576397667
183 4 7.3721789828 1.4186747828 8.6917666365
184 4 18.8792826287 10.3093843251 8.1512297121
185 4 14.206038018 17.0583924547 11.8524653073
186 4 15.7309383324 0.9875464795 1.2832394232
187 4 6.9685480709 4.937067182 9.9080761644
188 4 8.874291793 6.7912861287 15.4980617469
189 4 5.984310404 0.1965630551 3.2069678355
190 4 18.9205464209 18.4720552198 0.7244122698
191 4 18.1720266781 14.0479221596 5.1884886372
192 4 2.9194876395 20.3773033775 13.1612742762
193 4 3.0031657858 10.3755760789 11.2416587349
194 4 17.4051955417 6.4697510101 0.2367166497
195 4 15.5548739893 3.6081246049 4.7614428585
196 4 2.4959104826 17.9589752297 10.3936532121
197 4 12.7045125564 3.5526617401 5.8881260373
198 4 8.0607946317 12.9832032914 0.554658486
199 4 1.8845905409 3.2158430504 3.5373932709
200 4 9.7529397235 20.7136536329 4.3340174952
