# LAMMPS data file written by OVITO Basic 3.5.4
200 atoms
4 atom types
0.0 17.670372 xlo xhi
0.0 17.670372 ylo yhi
0.0 42.408 zlo zhi

Masses

1 183.84  # W
2 92.90638  # Nb
3 178.49  # Hf
4 91.224  # Zr

Atoms  # atomic

1 1 17.7639417441 20.2925216168 9.9084095266
2 1 3.293405347 10.0573995116 6.8721604214
3 1 -0.5074754135 6.066052992 7.5018305887
4 1 18.5957285631 15.2392949429 12.7144099087
5 1 9.6526850862 11.5960356677 1.9307225866
6 1 12.360043534 5.0403060979 4.6729167401
7 1 -0.7987198984 7.839744324 2.9049806542
8 1 5.0185559904 14.4800679725 13.2162174115
9 1 19.8433996029 -2.3259173159 14.6649480574
10 1 4.6844083723 9.9542782245 10.5650032608
11 1 7.1356328342 9.5512009592 9.3352034909
12 1 10.9655776458 10.1307114111 3.2859567389
13 1 4.0294533836 18.3918683086 3.2197090817
14 1 5.718071063 5.6656188609 10.6802224042
15 1 12.0028899751 16.0216154992 11.5727042772
16 1 11.5244460993 5.8143208725 11.0762567215
17 1 4.3535788968 0.1578967897 0.9298984514
18 1 11.9750660306 6.2408241034 8.2962740714
19 1 15.8776191076 10.1112533276 2.1407766199
20 1 13.5240455391 4.6759548664 12.7265699786
21 1 12.8529258707 3.557574051 7.356478865
22 1 7.6869081521 13.0595308641 3.7357660966
23 1 0.2056928488 7.6663377187 10.8900398009
24 1 -1.5766295764 15.5342134516 3.3914962562
25 1 4.9831876806 2.4154949697 6.8024399731
26 1 15.457820546 12.2394773489 12.3807815078
27 1 1.5835611332 1.8425298002 2.4080454065
28 1 15.0047216381 1.3215460941 10.3534772458
29 1 12.438174144 8.5727765582 7.7418026179
30 1 4.4653590195 7.8625173693 9.0853974706
31 1 16.2081107257 17.601796997 5.5818686081
32 1 20.8005987064 12.8499756254 13.7084623344
33 1 10.4318887656 8.3653779884 12.0026488795
34 1 17.13800345 18.1060129337 11.6241782594
35 1 17.4985331101 23.0710130305 10.0580236783
36 1 10.9096067425 12.6886127923 13.0388578258
37 1 14.3796013055 3.4049425021 1.8425974903
38 1 2.8898154641 3.8785252585 2.263044821
39 1 4.2498414439 6.2026916173 3.37880439
40 1 8.2267339526 7.7601725184 4.8486465864
41 1 18.2818741304 15.7462125027 10.2538846022
42 1 12.5620978765 12.9967114547 6.7631366628
43 1 11.4217402427 0.8132555464 4.8569895122
44 1 -0.6609841197 8.6035790206 8.5080524141
45 1 13.3602411906 11.3383470425 11.5798983703
46 1 7.8956189238 13.6629102779 6.179736168
47 1 18.2296191296 2.9785709154 12.2758357025
48 1 4.5344499973 16.9340140251 6.8909386838
49 1 5.741395954 14.0306121653 7.4329816248
50 1 7.60417335 0.2289852263 10.9537124443
51 2 9.3545067473 0.124825805 2.5279485134
52 2 9.9950891856 6.2828195095 3.3377945818
53 2 3.1125763019 15.7290854947 0.0316253419
54 2 6.4908239963 9.1513828172 7.2309270125
55 2 -0.8737958312 10.8111723449 10.1171586658
56 2 0.7384771827 14.2077947524 3.9036432535
57 2 19.3754429162 6.9618588619 2.7423162886
58 2 16.1746734342 5.355154489 12.4483340592
59 2 13.9105806857 18.5201658115 6.7253706425
60 2 18.1585768126 13.4801495077 11.0217136723
61 2 9.4734361259 9.1963632793 6.698889391
62 2 14.1963367531 0.890088621 0.4688318902
63 2 5.7808512442 11.6989046218 11.9565437501
64 2 2.9615154724 2.736356235 4.639026811
65 2 1.8013703794 0.329750346 5.9237924378
66 2 0.5196868774 18.1618368195 8.4034971864
67 2 10.0443690258 6.8592904808 6.4931749682
68 2 5.1524387445 18.1277174516 11.9459752524
69 2 8.0725504149 4.6670802755 3.5856956347
70 2 2.2614686983 0.6870950983 10.3976498426
71 2 6.1344905194 7.0858612275 2.0354788282
72 2 10.492881942 6.2341731521 13.3847086363
73 2 12.9429758535 15.4682188531 6.518300436
74 2 -1.0415346647 0.8923790546 2.7033577553
75 2 9.8104025216 18.1093072211 12.4463158625
76 2 4.7943926552 4.9045833279 0.3177131026
77 2 -0.7105053372 5.5179715938 4.7130482786
78 2 10.0827124962 17.127275237 10.427538577
79 2 1.65437992 7.0982345521 8.2696588106
80 2 14.0018447997 10.6552684198 7.8266432146
81 2 3.0711256734 1.4915156354 8.084581393
82 2 3.15426336 6.9986134123 0.9320044327
83 2 5.2624967128 11.3983381322 8.5103076715
84 2 16.3299931768 14.0891528708 13.7160520942
85 2 18.0607714803 10.3249637543 3.8341420546
86 2 7.8940107432 11.9127731983 9.5340249173
87 2 16.3255236329 12.2043516533 4.566710569
88 2 2.4973589759 9.4664255825 2.823254501
89 2 12.1300516265 1.1003771801 1.8737754278
90 2 1.4728260363 4.6797994092 0.2506011703
91 2 -3.4932830531 3.8054913139 10.0432987726
92 2 11.7288145537 10.4185953447 6.2324900237
93 2 8.4996039012 6.3396396509 11.0466300686
94 2 13.8036984367 14.0229896969 4.1933382386
95 2 3.1081274324 15.5668801382 5.3341066534
96 2 16.9802436057 4.9961554365 1.8533186568
97 2 21.180881722 16.0310177274 11.7549280606
98 2 15.5104086332 -1.4867131817 0.6221749774
99 2 6.9982677799 4.1328770107 12.1003306186
100 2 11.4803876773 16.2954297525 4.0758990365
101 3 22.4493545004 9.3879883915 13.2535966709
102 3 6.3837489636 1.3772068824 2.2212148421
103 3 -1.8878947695 7.543392218 0.4161399502
104 3 14.7783046237 3.1941747225 4.4491827341
105 3 5.659810963 2.8414463549 9.8636385528
106 3 0.3328083805 15.179408992 7.0348612579
107 3 5.1779913393 16.5125608097 9.6751871546
108 3 16.6372387137 10.75087008 7.1081554284
109 3 1.9705820384 5.6395188379 4.980220375
110 3 1.4182827224 4.1161497065 7.4056047163
111 3 8.4739756771 9.6920393018 14.4633819852
112 3 9.6098802004 4.8458690993 8.7728564477
113 3 7.6768696138 6.4983673015 8.4568460263
114 3 3.2769895714 2.1462760733 12.7170180007
115 3 13.5693415939 8.9371186011 1.5855888953
116 3 2.7884951414 3.859872944 10.465090861
117 3 8.4307730312 9.2848909595 2.5019133941
118 3 1.8686043778 9.9778946767 8.9863158434
119 3 4.4084853369 5.1584569198 7.7006999362
120 3 15.6939018403 16.8067198458 8.2565314142
121 3 15.1261169171 14.2556383448 6.8355669823
122 3 10.709680973 9.8204334617 0.026032999
123 3 4.1912850117 14.1794468814 1.564479041
124 3 2.3743563999 12.5542972907 8.0665656264
125 3 8.1513512621 10.9042026126 5.1234678137
126 3 9.677005526 8.319201949 9.3060051588
127 3 -4.0192427359 10.9714507473 4.5272020039
128 3 12.2633463107 8.8509136913 10.2812059562
129 3 8.4763597637 11.1966612288 12.5223534065
130 3 2.8483664259 15.1754119538 8.5379805878
131 3 10.0472636095 3.8638261596 5.5149207948
132 3 7.1043868455 4.0006881384 7.2660501662
133 3 8.2550113188 1.5109012704 4.9461111965
134 3 13.5183275834 18.2134104507 12.8013471569
135 3 11.8913383303 16.3648902178 0.8237711592
136 3 14.9418645908 4.3946570338 -0.4714119929
137 3 4.2530774191 5.0948131876 12.3116980277
138 3 10.2600588876 15.6886189292 14.3092106698
139 3 5.0382890249 13.0836307777 5.0805623678
140 3 0.8072896754 8.4167742091 6.2513929656
141 3 12.285051182 11.3531738983 1.349814834
142 3 12.8770107645 -0.7749154335 9.1296357998
143 3 1.5250902257 0.310401642 13.8753738612
144 3 7.0096004962 -1.3738309578 13.1216403622
145 3 9.0763607791 13.7036680511 11.2923920621
146 3 0.3499493482 20.2868324638 5.0375950063
147 3 0.9698201667 9.5713404123 0.8625897461
148 3 13.8744223336 17.2892141243 3.570631889
149 3 6.0513441743 13.8966198549 10.3620589286
150 3 14.4493960942 5.8865094665 6.8050552745
151 4 15.7020982423 2.7987448407 12.6245757701
152 4 3.5727391177 12.6420658518 11.2382035438
153 4 7.2495316345 1.8767518329 13.409001635
154 4 1.1662590417 6.0293297181 12.7219140043
155 4 11.9383372789 10.2296446433 13.2552785722
156 4 12.1147846018 6.1572298144 1.2159408355
157 4 10.8695257445 11.2712931052 9.7391681042
158 4 12.2213046082 13.9888837585 10.0832004598
159 4 6.9700851268 8.5602214055 12.2035470257
160 4 6.2769660221 16.4343035032 2.3236738423
161 4 4.9744348385 11.4359922813 3.0435123233
162 4 16.0196226346 2.644174852 7.7545105992
163 4 9.333602874 7.4337221144 1.022674433
164 4 18.1227322863 17.457918997 0.5110049498
165 4 15.3732688762 8.4079467981 5.5393405934
166 4 15.8649851451 13.0130565488 2.062094513
167 4 13.2537247183 14.0390225555 12.9514205873
168 4 7.1601988922 0.7729094928 7.633895886
169 4 15.6158339601 13.1938716343 9.64363221
170 4 8.9519226621 16.0080412961 5.8209085094
171 4 -0.2151044423 2.7042781485 0.2190699742
172 4 11.1495256882 12.8925403709 4.629214872
173 4 11.6136864256 2.4395443459 10.319578835
174 4 1.8287352476 12.1922948051 2.0682398563
175 4 10.2608100551 0.885693116 7.5077952739
176 4 1.582970236 -0.5695298725 3.1866087895
177 4 14.8231373614 6.9537486912 9.4511287274
178 4 3.7695711584 8.1851780086 5.8318972704
179 4 2.8788727329 7.1855754901 11.1244797065
180 4 6.1170945683 6.1108733605 5.7130895621
181 4 8.9878666726 15.0975702544 2.9246978297
182 4 7.6915664156 15.6680840132 8.9447420088
183 4 3.5434559539 2.6293824535 -0.1275450286
184 4 13.5898902928 7.5979567364 12.6930744439
185 4 8.1057740716 7.1393284158 14.9596654219
186 4 18.4365584464 14.5327216169 0.9009091908
187 4 9.5392328162 12.3501804624 7.5189948026
188 4 6.2585909556 16.2451009989 4.9514881068
189 4 10.8226768173 3.875600812 12.529555133
190 4 5.714045929 3.1054304035 3.9651802301
191 4 14.3572968784 6.0277879781 3.5322539213
192 4 8.5286181219 2.551586697 10.3311820879
193 4 12.1630996398 8.1019655763 4.2347403209
194 4 9.9887550641 3.3150103807 2.494194714
195 4 2.2106331585 11.9641075727 5.059258285
196 4 15.7594601573 15.9320594033 11.4030044244
197 4 15.3521745162 8.7890306349 11.3414148619
198 4 10.6666939056 15.4254434767 8.1219721025
199 4 7.9997032461 -3.5087649495 14.3452405066
200 4 1.8364368792 9.8607602546 12.0480233191
