# LAMMPS data file written by OVITO Basic 3.5.4
200 atoms
4 atom types
0.0 17.520744 xlo xhi
0.0 17.520744 ylo yhi
0.0 42.048 zlo zhi

Masses

1 183.84  # W
2 92.90638  # Nb
3 178.49  # Hf
4 91.224  # Zr

Atoms  # atomic

1 1 11.7909764386 -0.274650978 1.053333936
2 1 3.6260192407 17.6032407735 6.2192755296
3 1 13.8264728763 -0.6015828048 2.7469685088
4 1 1.0590823696 5.9883120698 10.2000652301
5 1 8.7391188119 3.9317185539 8.2188454637
6 1 3.0866200093 3.571923418 5.8334750381
7 1 14.065854947 6.6120228734 3.2320682957
8 1 6.3424380186 17.8417369954 11.2179678394
9 1 15.3487674493 13.3227809211 11.1341867789
10 1 6.7717680816 13.8920750972 14.1109131283
11 1 11.7450997721 10.2099153629 7.0796289082
12 1 9.3671346375 0.451337344 12.099552935
13 1 18.8795689803 7.3378486028 3.3806516314
14 1 8.3458627343 7.9167628938 5.1778310861
15 1 8.5963804643 8.4869748065 2.6528453222
16 1 10.3307121324 15.1840631697 -0.2018013869
17 1 16.7635102345 2.5529919357 6.3377327347
18 1 11.8195331489 2.2655057863 6.1091106106
19 1 14.1874850031 15.2597606681 6.9765045062
20 1 18.8104561279 4.9593643286 1.8240565363
21 1 18.0896954703 13.3133600171 2.8033527744
22 1 12.2236997442 12.5876896966 8.1951737011
23 1 15.8988001955 9.5900039326 12.3851088922
24 1 4.4622140936 6.1813445891 7.5468456806
25 1 0.4753898213 16.13931726 1.8426610944
26 1 15.1559483326 17.2039971569 5.3200622304
27 1 1.7242551379 1.1267816484 5.066268071
28 1 6.8634227728 1.4953420621 5.3946970099
29 1 0.0341256787 13.0214893015 8.737668167
30 1 16.7459120488 4.4097229959 11.5801466054
31 1 0.2879527268 10.9291110676 11.1767322067
32 1 -0.8352243789 15.0679908688 6.1433692186
33 1 12.3647356011 16.8387259124 7.8236051962
34 1 10.8187279275 0.1932348839 10.342472135
35 1 14.9632467802 12.6349839665 8.0134191187
36 1 11.8196899595 9.300916212 4.0482052589
37 1 16.5351965434 6.6727340034 3.4255904314
38 1 5.8973431405 14.3611539465 3.1615878586
39 1 13.4749209 4.2636098025 1.9431671674
40 1 4.1594645729 9.8626480846 10.9011567629
41 1 4.206038565 12.0467151751 3.3646796986
42 1 4.1757027984 0.9221036162 9.959846688
43 1 -0.3150182465 1.8657973443 12.7590728717
44 1 0.1871357377 14.3286060108 10.6377537946
45 1 11.4660817487 1.1525124378 3.2276713363
46 1 11.4499363831 -3.7146438945 1.7511036768
47 1 17.1489261295 17.5866663249 6.7155853133
48 1 16.0672115141 17.1532413136 11.8412487072
49 1 4.558863949 1.7730295602 4.3689045139
50 1 12.3908080451 10.717614137 12.8072161498
51 2 10.6653346898 8.3278233763 1.0329448608
52 2 17.3107231921 6.965738136 8.0792229773
53 2 20.4213818373 6.5359355384 0.9890438054
54 2 9.3968701434 4.9979625276 10.6146248717
55 2 14.0563721947 1.6117630258 1.0540344557
56 2 -1.4744051235 14.9330830673 2.8440956045
57 2 12.5392485188 16.9902018551 5.3854813498
58 2 4.260168378 11.1777072976 5.735042352
59 2 3.5810783571 6.1469564497 4.4295019891
60 2 11.9494450854 8.2803740478 8.8394234861
61 2 9.0189648657 10.4146095143 4.8573572083
62 2 1.9658686505 19.9104073849 11.4018992467
63 2 2.8434732563 4.5203419652 -0.3755554963
64 2 9.6390296025 5.3424927153 5.8937251968
65 2 17.6045369582 9.3526427046 1.7347289242
66 2 6.1866882408 16.5554701467 4.5750612326
67 2 7.2644302028 3.1604573303 2.4683353344
68 2 4.6181064902 5.3495239651 12.3226528954
69 2 2.9387501861 12.9099737957 8.9555049792
70 2 2.4044363507 1.8615051125 2.0265983885
71 2 8.1819195558 11.8195107223 14.4821019398
72 2 12.2474350961 13.1684906213 11.6649225216
73 2 12.2599408775 6.410194415 0.987130201
74 2 3.1092114318 14.4582458502 2.8778462726
75 2 10.4632754832 10.5182482192 2.0896262381
76 2 11.3221509393 7.7713389666 6.1602838675
77 2 12.5374894361 3.4652932212 9.4868386445
78 2 8.5819212951 14.6602153507 4.938558624
79 2 5.7075796416 12.8398506972 8.2035021485
80 2 10.4498249832 2.0564160307 8.474322384
81 2 13.9432412763 1.8693342569 3.8721969562
82 2 9.1660304867 2.6586628717 5.382731831
83 2 4.5631970042 2.0273708422 0.5710765939
84 2 18.3169792921 17.3392781502 10.8016909574
85 2 -0.1061475002 13.0388679522 13.0498789421
86 2 7.1870310897 14.7987189345 7.4414326061
87 2 2.1404089006 1.3903353375 7.7970531456
88 2 14.1648935805 7.3429233111 8.0248582771
89 2 13.1275216904 11.953777615 2.4488254829
90 2 14.5846427751 10.1712612727 7.5318934118
91 2 10.9515318381 10.9692228837 9.7734336077
92 2 0.6843611367 3.5151635661 7.8665420909
93 2 1.0377899351 4.0992808173 4.5454018349
94 2 9.0222987128 12.2229922565 7.2912649018
95 2 6.7930195176 6.6459411065 10.606228727
96 2 5.5276232039 1.9591059938 7.8809389056
97 2 17.2872890218 14.141808073 0.2277744365
98 2 16.8164775461 12.2387915874 5.8950576979
99 2 9.3543031455 10.9418309526 12.3081576883
100 2 12.4942767987 8.81872659 11.5100424979
101 3 2.9528787389 8.4996854054 6.9988021402
102 3 1.8870999409 5.2183424754 12.5294016499
103 3 3.5493039623 7.1416513115 10.5470074829
104 3 -0.7755713266 6.0224151467 13.4709879802
105 3 6.9590238364 17.550702545 8.0603127302
106 3 5.6583279542 16.1512127939 0.0658854317
107 3 6.3271629083 3.9399017926 6.041287607
108 3 6.0143494722 4.3146132139 9.1556631302
109 3 4.3524359448 14.2161883619 5.6274755789
110 3 14.9636464283 11.7536372803 13.5661005562
111 3 7.5227823335 16.2414656504 13.3376419987
112 3 14.0730868093 8.0783118626 5.3800542144
113 3 10.9308585866 15.7769220456 3.5187738451
114 3 10.9146935978 5.779976407 8.1368299987
115 3 12.9005131195 4.8248665125 5.7978322099
116 3 -1.0252088144 1.7817175716 9.527740416
117 3 3.6953027452 16.7610627617 3.3060853901
118 3 9.1807535183 8.8964373971 7.8737301965
119 3 9.1173079257 0.865054672 2.8742494867
120 3 8.6808364074 12.3003855878 2.9114388403
121 3 8.1661079604 5.562418175 3.1183562074
122 3 5.7833568594 8.3132683686 8.8922967437
123 3 9.4205937564 0.3276046234 -0.2597532019
124 3 15.9699729617 16.9543458277 0.4649444986
125 3 13.788214054 11.1459959774 5.2514731123
126 3 11.0080677748 6.6318451423 3.6138855802
127 3 7.8766086775 6.2526972934 7.7139784915
128 3 13.6273971019 14.3680250567 4.048107287
129 3 11.0646203563 13.0358351115 14.0356165133
130 3 1.8646471075 9.6133326281 9.6623797939
131 3 4.8480024797 2.745895152 12.3122161613
132 3 11.0716451234 14.4151463969 6.7247870976
133 3 10.2656020692 15.2867625875 12.5035505395
134 3 3.445025575 9.0574342872 2.513377993
135 3 15.974556914 11.5249363807 2.7588205786
136 3 12.7126989786 6.0787147286 10.4330998714
137 3 8.7969416473 -2.2056791034 1.9643320282
138 3 11.521722025 2.8664487335 0.5475683981
139 3 6.3537133182 10.2802247069 3.076600441
140 3 7.4107038862 10.6854411452 10.0333608883
141 3 14.2012196895 10.848759534 10.7597035066
142 3 8.4024922318 13.2140524401 11.972706313
143 3 16.3742963677 4.0770939487 3.0608883648
144 3 3.8933477741 17.5291171636 12.7181896013
145 3 7.9070134758 10.6864335202 0.6740971373
146 3 5.8887541214 11.4192558083 12.9809193811
147 3 -2.2859102696 7.1930831051 10.9824998803
148 3 9.5977845446 7.9661496662 11.111141111
149 3 2.9512628007 4.1345145078 8.9451283738
150 3 13.8189973004 5.2756605382 13.164629616
151 4 15.423530216 4.4463886568 8.8702173389
152 4 19.0824625247 15.6197409983 13.2956040902
153 4 2.0416239674 10.7744759596 13.0844445005
154 4 2.385458932 7.9442674834 13.9018340736
155 4 13.9352234334 0.6355145289 10.0591691098
156 4 13.8499669675 14.111028506 0.8765893728
157 4 5.8933251083 7.4950448932 5.614941911
158 4 9.9912547257 13.9808301053 9.1288116979
159 4 6.6218155676 0.4932849836 2.0371713581
160 4 1.6284918322 -2.0450738019 7.756458745
161 4 4.4540070267 4.1768439245 2.7009520186
162 4 0.7303446797 10.3686037199 7.4372034182
163 4 11.0592374581 2.9313410139 11.6185793184
164 4 16.0926702063 15.8228635389 9.3349717805
165 4 13.8870816851 8.7271842067 14.0837522227
166 4 6.5243156058 10.3231048006 7.0993704442
167 4 9.4750401692 12.87174581 -0.2083629773
168 4 -0.9990561255 0.5193272919 2.6918309664
169 4 8.0785166801 2.1147173577 10.5000991546
170 4 12.6544062369 15.4374651646 9.9673274477
171 4 1.976076236 6.0167165248 6.5478848544
172 4 7.3542751764 4.6019954653 12.3822008525
173 4 11.8226173254 -0.2504457197 13.2162733901
174 4 14.3628336603 9.03319609 2.2728600691
175 4 11.5558953602 12.4532447932 4.6446893568
176 4 14.1286030387 1.7270547776 7.3765798733
177 4 -0.4792890629 8.8803806864 4.946914823
178 4 6.5896092864 12.6249913606 5.1805898554
179 4 1.1192654244 16.1003940511 4.5041392915
180 4 9.7858888291 17.2553015747 6.3365061946
181 4 16.5642457617 9.0924065683 9.5562359251
182 4 2.7537456717 17.5545919749 0.1311750432
183 4 14.2258673465 15.2488753803 12.4624784736
184 4 14.6268034671 2.6225927408 12.0176131565
185 4 15.6429430188 6.2114312107 0.9919085357
186 4 16.3798534221 2.8302326549 0.5510234822
187 4 6.4856406659 8.6367890818 12.3814641715
188 4 6.035566042 7.1912288848 2.3871667162
189 4 0.7745379531 7.8876894969 11.9997717696
190 4 6.8504695116 13.4492934829 0.3653462419
191 4 5.531877591 13.7732804231 11.1683793715
192 4 2.8560179338 15.2915052777 10.8213513408
193 4 2.802484527 12.1641817768 1.3498513862
194 4 11.0017278936 3.8759197149 3.0882548851
195 4 1.4822404002 11.2341442421 3.8171569651
196 4 5.0026190158 15.2277367779 9.0388886861
197 4 16.0432222866 5.3595661548 5.70165624
198 4 5.6761409442 4.4184965084 -0.4749784128
199 4 7.6387162205 15.7788104314 10.3340024064
200 4 1.4516102851 13.3537265848 5.918572201
