# LAMMPS data file written by OVITO Basic 3.5.4
200 atoms
4 atom types
0.0 17.563496 xlo xhi
0.0 17.563496 ylo yhi
0.0 42.15 zlo zhi

Masses

1 183.84  # W
2 92.90638  # Nb
3 178.49  # Hf
4 91.224  # Zr

Atoms  # atomic

1 1 13.4135949215 15.8282382267 1.999467864
2 1 3.8902391922 0.7466226342 1.897737153
3 1 13.6565985343 1.0828634707 2.760320043
4 1 17.2312039643 6.8024029461 11.244031788
5 1 10.8509863635 2.1419807436 2.2688834985
6 1 5.3065419462 7.3511067592 0.059158368
7 1 14.3650033526 4.709844124 4.275499581
8 1 3.9952458901 0.6440925649 4.6435099665
9 1 14.8315035059 6.9055187581 12.481502679
10 1 8.2399703516 13.9043372657 11.7182677605
11 1 7.4894479187 13.1688061549 7.0556912415
12 1 2.8361384051 2.4105453904 10.22338977
13 1 17.1630509257 11.5734662161 13.822773003
14 1 5.679281835 6.1303647515 2.863924743
15 1 10.5253911132 7.9025627721 2.7444830235
16 1 8.8515855535 2.3078816628 9.7193765085
17 1 17.3191417543 4.6694596751 1.113017115
18 1 11.7009159005 16.6601772991 3.405008508
19 1 0.1474049772 14.5247247314 6.5247580395
20 1 17.3301349221 9.4657000409 5.152211994
21 1 15.7439801648 8.6512194348 9.1348596975
22 1 13.9126138876 9.5469222525 11.3137390365
23 1 16.6739416353 9.1315415325 13.0836175365
24 1 7.2554164421 4.6200642745 1.206818568
25 1 1.4591299339 11.0231361989 12.049313439
26 1 17.4869616611 16.0950477533 8.3750857155
27 1 0.767199148 15.7506706273 10.5870705075
28 1 3.7075516104 3.2106383318 5.6903313495
29 1 3.1160873587 12.746795742 11.2375486965
30 1 15.275089971 4.2806829094 12.963742515
31 1 4.2890515639 16.578308224 6.936169437
32 1 15.8661985619 13.4333313732 8.457459882
33 1 13.883000077 13.0492551259 6.7805638605
34 1 8.9873577004 4.7459060208 7.0414833195
35 1 11.6543680696 10.9528066919 12.32957469
36 1 10.778753676 11.1735707036 3.8833751805
37 1 12.9293983165 8.6364790951 8.1544388955
38 1 1.9532678288 1.5498845573 3.758865345
39 1 9.3361293888 3.6104985417 13.9797433965
40 1 4.1623996136 9.5352497287 5.6586227475
41 1 6.0580974639 10.0701553081 1.5555250965
42 1 6.2592836223 15.2648160284 8.3583159165
43 1 13.9452540642 2.1124947952 12.646568823
44 1 8.4106617144 15.5155099936 6.622265742
45 1 9.7480095284 3.1419843823 5.083476303
46 1 9.2420245285 17.3375844789 2.3503366875
47 1 14.8253710356 15.228954531 9.988981818
48 1 14.2712093661 17.1366793365 4.5541182465
49 1 9.7423605812 4.9437735566 2.0200324275
50 1 17.3132646572 5.009283816 3.3519850725
51 2 10.266485511 12.4359947513 0.9060070845
52 2 12.57232612 5.2212450035 12.5490181275
53 2 17.0546564051 10.9045880456 7.8129750015
54 2 5.9450835682 10.0580324562 10.0849586325
55 2 11.8173660942 3.7641629733 3.7432812255
56 2 0.6103604658 12.4877926625 5.1154550865
57 2 15.2821007917 2.3275526027 4.6865653485
58 2 11.8255682468 15.3265057004 6.1888023075
59 2 2.8978335219 13.0650995069 13.9184749995
60 2 11.4876681869 8.7152232731 5.750005212
61 2 8.8557802433 9.6397897645 5.1666487905
62 2 0.1846416964 17.0874002063 12.810941178
63 2 3.3453059105 16.0117087892 1.018896165
64 2 7.4697920834 5.1120750545 4.853174604
65 2 12.4289106909 11.0066648011 1.0234395135
66 2 10.7975961458 13.3536219055 11.604849276
67 2 5.6532335897 12.4578743008 11.9664191415
68 2 4.6437365301 4.727941199 9.6958003275
69 2 1.3296920618 2.8462528712 8.254007733
70 2 16.9077758738 5.7078643171 6.2031063315
71 2 2.7184148579 13.3338403156 2.640145335
72 2 14.8666343618 11.8491876362 13.08021561
73 2 17.3509214952 7.0090606604 0.06233142
74 2 2.5703115561 3.1304449898 1.386192951
75 2 14.5587594496 12.9594905568 1.7975369085
76 2 3.1373669392 10.8991128014 9.5352484485
77 2 10.9560016675 16.8064622522 7.7156270475
78 2 11.6881419698 14.5460808887 9.237325926
79 2 7.2502538281 12.0898946464 13.915331874
80 2 6.8838036029 3.5557987897 8.7839971965
81 2 14.1364715335 6.3577340427 10.160033262
82 2 9.6900224169 6.7306748579 5.0481693555
83 2 2.2938594945 4.0690736943 3.858448935
84 2 17.0919918311 13.4681114861 11.9137940235
85 2 4.9829085384 13.1891782295 1.2143579385
86 2 12.9070529831 11.8134130781 4.481941008
87 2 5.8131695944 4.931688115 6.711053874
88 2 11.9142849778 5.5462543355 7.373085378
89 2 12.4882816302 13.435130929 0.0454322205
90 2 11.578396992 7.220921736 10.7169473025
91 2 16.6824430699 10.6536070929 10.8783101475
92 2 2.0922063228 10.1980245843 7.101684057
93 2 4.8743485696 11.401681877 3.416700075
94 2 8.2794852318 10.0620137495 7.4761577235
95 2 15.9262511405 7.4131717632 4.1769103095
96 2 6.6849205458 7.7256827358 6.8467680225
97 2 15.454524969 11.9289306502 5.0233581795
98 2 0.2196701572 12.886097976 2.229277251
99 2 3.0832044546 1.4017020441 13.3886646735
100 2 2.2178114888 5.495594012 10.7768525685
101 3 2.194737446 14.5968757486 8.3394875115
102 3 4.9692448411 1.4831452045 11.3177306415
103 3 17.1343950282 1.7398436021 13.9125883305
104 3 14.8149694064 0.0992372651 0.2787299415
105 3 6.7784568757 0.3450269753 4.3297006875
106 3 16.3019241331 10.8967427832 2.559257799
107 3 5.2043259122 3.0879601224 3.1454677755
108 3 1.6542568617 10.0543788978 0.958699221
109 3 16.0186788626 15.8750540766 2.3843761845
110 3 0.5946534313 7.7226043819 2.109311607
111 3 15.7882364864 1.2592450549 7.929332184
112 3 4.6039798005 7.2160134414 11.135835267
113 3 11.7562040295 13.7680081803 3.087613107
114 3 7.922250046 0.1643621814 7.959216534
115 3 9.5889204354 0.27776827 5.273051829
116 3 14.8108007106 14.7923539464 13.0587532515
117 3 8.1419600723 2.2032994746 2.6068717035
118 3 10.6951791854 11.952697573 6.7550622675
119 3 7.2350898569 3.2848033551 11.8807079595
120 3 8.1354057269 11.9517784753 5.148147048
121 3 14.7424477994 6.566375027 7.199488074
122 3 9.8258188015 6.2243067981 13.079700537
123 3 7.5549090003 13.1429475953 2.594073699
124 3 0.9314807129 17.5560873661 1.5138050265
125 3 14.4713638447 10.8061270871 9.0090714525
126 3 10.1005981157 7.4694947334 8.245918305
127 3 7.2009506359 2.2432237599 5.8178157105
128 3 15.0449322991 14.436962752 4.7205770265
129 3 14.6671235854 9.5674471296 1.154637711
130 3 4.7101251399 1.8052967801 7.542636282
131 3 4.7287317319 4.1939074716 13.5162223755
132 3 14.4631794312 15.8494593208 7.4108800185
133 3 9.0872151326 15.2367683547 9.461321985
134 3 1.5670802737 7.5730213555 4.515240351
135 3 3.9970995415 7.5098363274 7.9237468875
136 3 12.9959571166 3.9036238056 9.9722630205
137 3 6.9596060709 16.2609016024 2.077072758
138 3 11.3849633608 2.3026774233 11.5778416635
139 3 2.0843512249 10.5749006764 3.604245657
140 3 9.0485030798 15.5018211805 4.2213237645
141 3 12.7513076285 8.5510643014 13.5127407855
142 3 9.9465035541 15.0592282823 0.944242614
143 3 13.9755022683 3.616447649 6.846752427
144 3 6.308929127 1.366306155 0.4040688675
145 3 4.1952168302 10.1411358939 12.986578542
146 3 6.7752467955 8.7853920742 12.709130382
147 3 0.8983624579 3.9511502745 12.7840448415
148 3 13.937734429 12.9282645929 10.662409839
149 3 17.2532521234 5.7627792219 8.7038700465
150 3 9.9586964843 4.7894650716 10.0472815905
151 4 16.7533767612 2.1154407204 2.404275621
152 4 0.6015395512 14.7785028465 13.990843599
153 4 6.4319679149 9.0830517059 4.1809710405
154 4 7.0740066046 5.7603515954 12.266084145
155 4 11.149200826 2.5297107249 7.5232982835
156 4 12.2940920661 1.308172037 5.265437853
157 4 7.7158967071 7.1491924183 1.6408248945
158 4 8.3742654085 10.9845172327 11.22915621
159 4 12.9376016986 8.9772502598 3.332124414
160 4 3.5900537542 17.4482654154 9.205428492
161 4 3.8028562331 8.396484636 2.207701509
162 4 3.2068168664 12.121087064 5.7722802225
163 4 12.9730810143 3.3020756483 0.9722348505
164 4 0.6881056321 12.7759005625 9.7356674835
165 4 11.9801401842 6.1825950759 1.300954692
166 4 5.6203531445 10.7429592712 7.0380017295
167 4 9.0400548626 0.8103893654 13.492800042
168 4 6.2463465267 15.6437972811 13.705648269
169 4 9.1501056209 8.3009328949 10.8819788835
170 4 7.524678711 0.2899629565 10.9316509725
171 4 2.2945377967 7.6550894251 13.1632506885
172 4 10.1235379734 17.5508142777 10.6663479135
173 4 7.121354804 6.67915445 9.326592882
174 4 15.236606068 9.4217923547 6.2469853245
175 4 5.3799765037 13.9319096712 5.537649297
176 4 1.8389247277 17.4358139506 6.747941025
177 4 0.4801178343 8.1832139143 7.1119513755
178 4 8.9262342755 10.0022534274 2.71682883
179 4 2.3565388696 5.2933928593 7.297205262
180 4 12.9603207832 0.9329632476 9.1376517135
181 4 4.348545799 6.7760014989 4.945160235
182 4 2.854974552 16.4037339235 12.464342571
183 4 12.6561538762 16.1034246628 11.3274268275
184 4 15.058711213 6.1408083575 1.3473234855
185 4 15.2886846438 0.1767493638 11.1176648235
186 4 11.8022012448 0.3128214953 0.3728323455
187 4 11.7526990583 10.6379910373 9.6998779185
188 4 9.9010497533 9.7968824149 13.9299777345
189 4 2.8135670295 5.5416377706 1.259200902
190 4 0.9844743468 15.796682596 4.1674653375
191 4 4.2579232531 15.6119493938 3.604882965
192 4 4.7042360997 12.9467427957 8.727021777
193 4 1.4397693409 8.5459294377 10.177345953
194 4 12.7371372243 6.3256613427 4.462313439
195 4 16.8788624954 17.1554821128 5.5114728825
196 4 7.4308506514 12.5616364494 9.525946365
197 4 0.3081659394 3.0954244326 5.652294768
198 4 5.0702172039 15.3129445739 11.0870580225
199 4 0.6014448839 0.8256548535 10.440485031
200 4 16.581219549 3.6042715798 10.7911186575
