# LAMMPS data file written by OVITO Basic 3.5.4
200 atoms
4 atom types
0.0 17.520744 xlo xhi
0.0 17.520744 ylo yhi
0.0 42.048 zlo zhi

Masses

1 183.84  # W
2 92.90638  # Nb
3 178.49  # Hf
4 91.224  # Zr

Atoms  # atomic

1 1 10.9616509438 -1.1534809846 0.9246599078
2 1 4.7381496926 17.899817561 6.9458065229
3 1 13.1870452644 -1.6478324559 2.7684222394
4 1 1.0469236741 6.6400488803 10.0139225184
5 1 8.8393775901 3.167614379 5.9017643539
6 1 3.1760129477 4.3728898366 5.5299528115
7 1 13.3974730792 4.2306410185 2.9433751373
8 1 5.792032431 17.1218988051 9.5406335942
9 1 15.4757702415 14.0824223873 10.4597120506
10 1 7.3134737438 14.0645242465 13.3931112998
11 1 11.1699739916 10.5757604118 7.0063484947
12 1 8.6908750929 1.3518653903 10.9433536128
13 1 17.8133964912 8.5635707686 2.7982763194
14 1 8.8247680929 8.1113866471 4.3688506925
15 1 9.1595436064 8.9645790746 2.2147589837
16 1 9.4894635961 14.6551359118 -0.6687456883
17 1 16.5610839682 1.6246653017 4.54607208
18 1 11.6215543483 2.7100000533 6.1706541658
19 1 14.6454497436 16.4440758844 7.7661592186
20 1 18.3218497085 5.7584230886 1.9023482304
21 1 17.3782027607 14.3509426817 4.8517623014
22 1 12.1404858466 13.0820786623 8.0133257722
23 1 15.3873278035 9.1143982558 13.1159683066
24 1 4.4871007336 6.2015374218 7.1108356723
25 1 0.5298430672 15.4209660551 1.5353541274
26 1 15.5429770122 16.9338251819 5.5657537402
27 1 1.8305398256 1.8384986235 5.6898373882
28 1 7.0763164571 2.3665847105 4.261270464
29 1 -0.1141725266 13.1371722914 9.3077435981
30 1 18.512503962 3.643748832 11.6193307162
31 1 0.0951851211 11.6478000724 11.7962888832
32 1 -0.6463463784 14.7647912402 7.3937072851
33 1 12.272362209 18.1487107675 7.9892398368
34 1 11.5839797111 0.0988897072 10.495118569
35 1 14.9072504823 13.1263469245 8.0210256019
36 1 11.3864587276 10.145710947 3.3506802374
37 1 15.6684123987 6.7683133413 3.9019009248
38 1 4.6222631116 14.5862192917 3.7027317427
39 1 13.6006732367 2.1167502896 1.7074687853
40 1 4.7704950885 10.1555526993 11.1413706797
41 1 4.1097767942 12.0066082648 4.8855007757
42 1 5.0120977383 1.8225997748 9.2858441587
43 1 0.510881242 1.3230928245 13.2898893466
44 1 2.127045654 14.0646258668 11.4548805677
45 1 11.7589031399 0.568935176 2.9601922349
46 1 10.5158785385 -4.1762305232 1.3717049933
47 1 16.8406845564 17.9845767882 7.6817781331
48 1 16.198491996 17.4253037768 12.3307946496
49 1 4.7011451804 1.8068014951 4.1635521734
50 1 11.9977835917 10.2367047557 12.3377237395
51 2 11.7758870483 8.3585430224 0.6002221651
52 2 16.7113509796 7.6691532569 8.3930272013
53 2 19.3679283571 7.7218372581 0.582228985
54 2 8.2297138678 6.2650888396 10.077422567
55 2 15.4945412658 0.5353452817 2.4045968736
56 2 -1.8853359524 14.4663400835 1.8256644518
57 2 13.0758537172 17.1218211882 5.2983263578
58 2 3.9430952986 11.8072723074 7.6667093914
59 2 2.9147048923 8.2041172872 3.4742433312
60 2 11.8791155926 8.6136073854 8.5717656806
61 2 8.9158657997 10.3183687683 5.1467984006
62 2 2.3942361239 18.6902720588 10.5142558752
63 2 2.1537781043 4.3783457963 0.1647772819
64 2 10.0522085181 5.2721301083 4.6488394944
65 2 16.7676524888 9.9573541886 0.9427212058
66 2 6.0118462835 17.1851499173 4.56120936
67 2 6.1710478231 3.7754555936 2.1103533792
68 2 5.9101257497 5.4087866552 11.983773767
69 2 2.5804471168 11.5738996767 10.41534216
70 2 1.6333866024 2.7131208482 3.2214793478
71 2 7.7335749301 12.1105630439 14.3469718618
72 2 12.3987692959 13.6469668969 12.6470574202
73 2 12.4620889143 6.0407472764 1.1873795962
74 2 2.3657780555 13.4867519576 3.1569108595
75 2 11.5326062616 11.1388879868 0.184696681
76 2 11.3471253582 7.7299318418 6.098758393
77 2 13.0196266712 3.144973548 9.4901024102
78 2 8.2338699634 15.7501258198 5.6213777779
79 2 6.2746066334 11.6362279714 9.3510589248
80 2 10.1094649078 2.1114416794 8.2851690355
81 2 13.9244451973 2.2816488742 4.109024327
82 2 8.2703907279 5.1526409119 3.0772963354
83 2 3.8211966495 2.0405630864 1.6437063571
84 2 18.8633274258 16.6943887969 12.275241673
85 2 0.0264791004 10.8381945254 14.199146231
86 2 7.4074522113 15.2233017519 7.7295669466
87 2 1.9216476944 0.372900302 8.0889440544
88 2 14.2889462299 6.5105809194 8.7957604224
89 2 12.7500921009 12.3901208815 2.8184568365
90 2 15.5922378104 9.8595057392 8.9405443008
91 2 11.1267984982 11.334587689 9.551151481
92 2 0.2425916958 3.8962721615 5.9426320666
93 2 1.1078454035 6.2812743277 4.3637288256
94 2 9.4238711868 12.5517264423 7.6110391008
95 2 7.0216364928 7.5022100015 11.958578185
96 2 5.1180381433 3.1151199523 7.0662912826
97 2 13.617212819 10.788587342 0.836512583
98 2 16.561893777 12.3863441099 5.8878565574
99 2 9.4561708536 9.5775442308 13.2510054586
100 2 13.9591240059 9.0803382798 11.1082107859
101 3 3.5600722115 9.3288250052 6.339125785
102 3 3.4545624664 3.9564138674 11.2417173907
103 3 3.7374168319 6.8000735444 10.0760526432
104 3 -0.2999009982 4.333106184 13.6162810598
105 3 7.2125435707 18.4669447714 7.2795103834
106 3 3.7788616262 15.4221888279 1.4792814374
107 3 5.7027425146 5.1827916594 4.995376825
108 3 5.2097592382 4.4841612784 9.177302713
109 3 4.335593604 14.6383123182 6.590236441
110 3 14.7488440342 11.9483141214 13.0604224781
111 3 7.0018893879 17.1532115283 12.1462745702
112 3 14.59644615 8.1205019894 6.4853809229
113 3 10.5744454799 15.5745306457 3.4950242938
114 3 10.0893383036 5.1856158281 7.7116797274
115 3 12.7588074446 5.135333921 5.7759975245
116 3 -0.3670988333 2.2546716591 9.6334095629
117 3 3.1706020163 16.9552509493 3.7796270227
118 3 8.5017791343 8.6473761666 7.2638382528
119 3 8.8504179365 0.3727109028 2.4389807846
120 3 8.8885292341 11.5641031279 2.8873175846
121 3 9.8586339069 6.3726853054 1.7717488243
122 3 6.3075153212 8.3585808672 8.8706062829
123 3 9.0110808813 -0.3903038322 -0.7768174579
124 3 16.0313130865 16.8455816043 -0.0356445101
125 3 13.9069661527 11.5770071559 6.212876665
126 3 12.4352047343 7.3512817573 3.6435899693
127 3 7.2797268636 5.8442037752 7.3226310278
128 3 13.8118120433 14.4990987938 5.0396386522
129 3 12.0734781116 11.2860643389 14.4594847411
130 3 2.4090513146 8.8388675612 9.0669225082
131 3 5.2666941222 2.0456474311 11.7676529338
132 3 11.1787459273 15.4648609503 6.6951903514
133 3 9.8292199067 15.9046193602 12.3308581421
134 3 3.2678333851 9.8095097705 1.6751771827
135 3 15.518955897 11.7686578141 3.3960571776
136 3 12.7027668193 5.918191249 10.5607609632
137 3 7.8403421391 -2.3975366817 2.4418480378
138 3 10.890465037 1.7095916768 0.6546667565
139 3 5.9607580717 9.5699680858 3.5090552909
140 3 8.5534192496 10.221737485 10.5281216237
141 3 13.8925148679 11.8816667881 10.6386044256
142 3 9.7337821364 12.4900774268 12.473687209
143 3 16.3451537638 3.9094407527 3.1661256787
144 3 4.1263798016 16.4286628859 11.6049090931
145 3 8.4067373329 10.4282558961 0.3038893056
146 3 4.6203897936 12.5400110216 12.9967134509
147 3 -1.3690478088 6.8371661859 11.9729653286
148 3 10.688929175 8.5012913568 10.8149163149
149 3 2.3978136846 3.2732476454 8.299191623
150 3 13.8887258318 4.8318042015 13.0637539411
151 4 16.2101559057 4.7038680792 9.2257373837
152 4 17.1045877844 14.7047150619 12.5923849286
153 4 2.5611143774 9.827559641 13.0727963635
154 4 4.4484159821 7.3327765227 13.0973612256
155 4 14.7597734743 0.7141681272 10.0443741005
156 4 13.2846140828 14.5720469371 0.3654450547
157 4 6.2247313827 8.071991079 5.7842641613
158 4 10.8353060555 14.0070013662 10.5208910496
159 4 6.1455914085 0.8388380324 1.5096678451
160 4 2.285660599 -2.4027993876 8.9629150982
161 4 3.6291796325 5.6374136173 2.267458583
162 4 0.5388066799 10.4047879108 7.9154434944
163 4 10.8698072038 3.290121874 10.9891115078
164 4 17.4062815051 16.2831476756 9.7065449107
165 4 12.4224470046 7.2763027846 12.854642089
166 4 6.2536768782 11.1509767745 6.1058619821
167 4 7.3957529097 13.5659618395 0.2049608736
168 4 0.7030182761 -0.5139200399 3.5527507315
169 4 7.9690037954 3.7080455823 8.971341097
170 4 13.338038861 15.8068056018 10.3279710413
171 4 1.6703907642 6.8744717044 6.9953840582
172 4 8.3073346182 2.930697477 12.7119307565
173 4 13.0592692818 -0.3505175516 12.8854027238
174 4 14.6244108343 9.4419839567 3.083084663
175 4 10.5275913311 12.8751507914 5.1414419059
176 4 14.7756029409 2.0260483764 6.9669490982
177 4 -0.6004935401 8.9812584725 5.5116665568
178 4 7.0963834909 13.5678044962 4.9769042976
179 4 1.563358992 16.0828543847 6.2283957408
180 4 9.4268787977 17.8936782923 5.1010182202
181 4 17.5769316243 9.0024771447 11.0710432973
182 4 1.5219629054 17.5187892106 0.8061715872
183 4 14.3691803746 14.8798326205 13.317347952
184 4 15.1211149911 2.9172828946 11.730835705
185 4 15.7349856192 7.1975372287 1.4096663482
186 4 17.37976894 2.5259844097 1.197874777
187 4 5.6313037834 9.6065738259 13.4298713434
188 4 6.6844164851 6.8515757714 2.1830337677
189 4 1.7929641371 6.6158211955 12.5133090394
190 4 5.1378346568 12.6624042813 1.9794739334
191 4 7.5990497817 13.8785613473 10.4866509427
192 4 1.7635690593 12.6831922936 13.8563608435
193 4 -0.6505284048 12.3001541387 -0.0389133216
194 4 10.9472378542 3.216190817 2.9174714669
195 4 1.3296461084 10.8801503998 3.6875721773
196 4 4.9178724035 13.9888964806 10.383418057
197 4 15.4149807938 4.7732064236 6.0248977171
198 4 4.738192268 4.4221017519 -0.0869804928
199 4 8.9053107779 16.6984171664 9.5749418189
200 4 1.7002963965 13.0469387078 6.278017847
