# LAMMPS data file written by OVITO Basic 3.5.4
200 atoms
4 atom types
0.0 17.520744 xlo xhi
0.0 17.520744 ylo yhi
0.0 42.048 zlo zhi

Masses

1 183.84  # W
2 92.90638  # Nb
3 178.49  # Hf
4 91.224  # Zr

Atoms  # atomic

1 1 10.3069131802 -0.248638455 1.3711247309
2 1 4.6418253726 17.8227120956 7.1385869318
3 1 13.6821532815 1.4455262068 0.9608447347
4 1 2.3458448802 7.1183152574 11.1680429875
5 1 9.3379363177 2.130620937 5.084213737
6 1 1.7512132554 6.0954522954 4.403234183
7 1 14.6553990733 5.895698293 3.4177400698
8 1 7.5710307831 17.4605646245 9.3083108256
9 1 14.5733436473 12.907319403 11.7885083213
10 1 7.3239579818 14.1052266868 12.7361579731
11 1 10.7125651842 9.2678048092 5.0642447213
12 1 8.7660721989 1.4879612735 10.5066876557
13 1 17.8616927724 9.9079949238 1.9459431763
14 1 7.5412682952 6.3073879454 2.9509618579
15 1 10.2142482429 10.4523689953 2.4531244704
16 1 10.3568713041 14.8966318602 0.7301593152
17 1 16.2550093607 1.1258768772 4.138636631
18 1 12.150819231 1.8497530734 5.7171273811
19 1 14.270316598 16.5540523681 8.3543850893
20 1 17.2869168812 6.6557285445 2.7288975398
21 1 17.3789205856 14.074376336 5.539014576
22 1 12.5669290166 11.210435697 7.7383604448
23 1 12.3155200064 5.4695694451 11.960302153
24 1 3.8185401543 6.5285743731 6.7635448416
25 1 0.8095347632 15.0881274599 1.172097671
26 1 16.1380109133 16.5448331278 6.2672287507
27 1 1.7847954407 4.645417826 6.9513476083
28 1 4.8390471019 1.889305277 5.0410363277
29 1 -0.6559405626 12.719616694 10.1357372563
30 1 15.387080761 3.1434142018 11.8905508282
31 1 -0.1175077754 11.6375590223 12.299671561
32 1 1.5050047524 16.5562340511 9.6472542874
33 1 12.3213905069 18.114386754 7.7907867322
34 1 11.5928777962 1.354051804 10.4440487501
35 1 14.1763482925 13.5240070164 9.5678508442
36 1 13.159909837 10.8097056204 2.832637945
37 1 15.4494891255 7.6735092643 5.7485864333
38 1 3.5273548502 14.7815682286 6.0167176992
39 1 13.0597011681 3.8188299474 1.7862423494
40 1 4.2469516047 10.7726397856 9.0779062867
41 1 4.5583288654 11.1464410043 3.6027310867
42 1 6.0059167381 1.9291280008 8.3878578202
43 1 -0.9476099649 1.7617688029 14.0206802227
44 1 2.3716068566 15.3924109218 11.5719636442
45 1 12.2469135035 0.771313961 3.0068222054
46 1 8.9614514466 -1.6715539664 3.5046877651
47 1 16.7615407276 18.033630316 8.1472267872
48 1 15.1818093012 17.663819622 12.6498965011
49 1 4.8249560435 3.293776526 2.6409528864
50 1 13.0625998 8.6530605967 12.389738377
51 2 12.1297209263 10.1963858444 0.8110045843
52 2 16.3175521093 9.0038635612 7.6547307571
53 2 16.3779503189 8.1562912627 0.3094539379
54 2 9.0271043025 6.7433380464 9.5834195366
55 2 14.580612128 -0.5611743625 2.9545186982
56 2 -0.5635223174 15.9758283944 3.6722082586
57 2 13.6621284727 16.8453648727 5.6817397843
58 2 4.0422914437 11.9904119139 6.3495271987
59 2 1.1833456183 8.2556813624 -0.4787837568
60 2 13.3771346492 8.8463427867 7.9371217613
61 2 8.0556275802 9.0221778197 4.0702644806
62 2 3.0775719467 17.7289335398 12.882078409
63 2 0.8372376876 5.5326176672 0.6142224672
64 2 9.9174428098 6.0437046028 4.398778777
65 2 15.5037484168 11.2276380891 1.2906427565
66 2 6.7914650772 15.9446419957 4.0809614918
67 2 5.1935040175 5.6943583129 2.1184770528
68 2 3.7968324781 2.1414578676 10.5658403616
69 2 1.7370635026 12.599114273 10.8310122893
70 2 2.4131925177 2.2659159469 5.1367161312
71 2 7.4394384319 11.7306653072 13.6678020538
72 2 12.4529175057 13.1335423437 12.8191022784
73 2 13.5280755083 6.2056488396 0.8824348858
74 2 2.2596391404 15.2154445743 3.4442904384
75 2 12.3942403588 12.8257650702 1.4317920058
76 2 9.5878744614 7.6281520879 6.981892537
77 2 12.1907514595 3.2392703674 8.4790481587
78 2 9.2136683384 14.5623933575 6.345212233
79 2 6.6241663259 11.6557310124 8.3963410042
80 2 9.7180176718 1.9658195925 7.8665505005
81 2 14.3000897735 2.5541740603 3.7457178336
82 2 7.4831458551 3.6833919682 3.3148894003
83 2 3.0707619839 1.7520729983 1.1447235821
84 2 17.9853459488 17.2560423517 13.1790579667
85 2 -0.3824855506 8.1134151989 12.0994221658
86 2 9.8060315524 12.7094946097 7.8617532442
87 2 2.0369341899 1.6071011063 8.1181413446
88 2 14.4383445627 6.3228806633 8.0674823347
89 2 14.6996198543 13.4801834306 3.1649895418
90 2 15.1749776127 11.9133286998 7.178687689
91 2 10.0819594422 9.6466951032 9.6183938016
92 2 -0.0916189489 2.0722963075 6.289696679
93 2 2.4298519419 7.171076525 1.8769983322
94 2 8.818044157 10.2912366698 6.9584154566
95 2 10.2002793042 6.9113688144 12.1309199021
96 2 3.8224972143 3.1913257275 7.1859645158
97 2 14.7331922279 15.0911026574 1.2865275187
98 2 16.7711051266 15.0788178126 8.32345416
99 2 8.0090301103 9.0064298246 12.090965472
100 2 14.8755605375 7.7219068155 10.5368823245
101 3 2.9732781411 9.4079497363 5.0264078285
102 3 1.9023584065 2.5546590345 13.078567872
103 3 3.6786131852 5.3882556722 12.4836765523
104 3 0.2786290629 4.7031295799 12.0827392013
105 3 7.6205370469 17.8188193367 6.3152992858
106 3 3.3917509495 13.1471302063 1.5548829005
107 3 4.6280799986 4.6379515361 4.8250521504
108 3 5.4403483483 4.8602827692 8.4835165997
109 3 6.4039757773 14.3195465597 6.9267482669
110 3 15.4418784648 9.7563963359 13.1358397709
111 3 7.6608892476 16.9446339041 12.9085732742
112 3 12.4749165518 6.9470266822 5.4906618989
113 3 12.2740084581 15.1811580551 3.5460230515
114 3 10.9414386631 4.6886882818 6.9862419821
115 3 14.62999014 4.3233259295 5.7316625338
116 3 0.0118033748 1.5195863916 10.9272811853
117 3 4.0866776205 17.1216601725 4.4135708429
118 3 6.8372690327 9.1107323905 9.5141845613
119 3 7.9408034571 0.9505522234 3.0765760531
120 3 9.8684980858 13.2818491342 3.2619719923
121 3 10.0686471809 5.2747571686 1.4988396442
122 3 6.9311853015 6.5545770844 6.127118087
123 3 7.5326503669 -1.3544370851 1.0043972122
124 3 16.5394975356 17.132682823 0.1963498637
125 3 13.4929097982 9.7249034994 5.5182563194
126 3 11.3871597326 7.9099206929 2.6722223021
127 3 6.9052300713 2.8255372707 5.940583488
128 3 14.3924961046 13.7230841924 5.798166912
129 3 12.3609707436 10.3184104677 14.0126864774
130 3 4.0627714413 7.6521027697 9.105493559
131 3 6.1810418307 1.2553504447 11.2938880262
132 3 12.3933550356 14.6946215365 7.748478455
133 3 9.9825886153 13.9602809007 13.205269849
134 3 2.7681780342 10.6125108731 1.4952239366
135 3 16.1369398702 11.2292126783 4.3449131866
136 3 14.2536853822 4.4944007516 10.3246997069
137 3 5.2819720358 0.8221905223 2.1744584986
138 3 10.337668043 2.1955994194 1.674382055
139 3 6.4275527417 10.7320109324 1.6820293248
140 3 8.0420758103 11.8938275861 10.928328601
141 3 12.6855481329 10.6307583776 10.5536863872
142 3 10.2469014783 10.6246604579 12.5119731744
143 3 17.2787791964 4.1337383389 3.8747597818
144 3 5.0793293884 15.1304498683 11.9271376339
145 3 9.6389031027 11.7686679761 0.1821468902
146 3 4.9810551849 11.9480903815 12.1098584794
147 3 -0.1516770808 6.5041565882 9.8544975264
148 3 11.8609153941 6.6525415212 9.3850488461
149 3 2.0580953941 4.4212178304 9.4542030893
150 3 14.9582978708 6.485877196 13.1729286298
151 4 16.5909277523 3.241728703 8.864148551
152 4 15.4593652185 14.7572538161 13.6446336058
153 4 1.817805048 9.562436794 10.2068837338
154 4 7.3490869337 6.1465096707 11.4461892461
155 4 14.2584799338 1.3166199609 10.244869897
156 4 12.6688275613 15.9466708978 -0.0091075968
157 4 5.1357251592 7.9365962008 3.5746917984
158 4 11.1614731018 12.9093568903 10.1576959834
159 4 7.1201141122 3.0401309928 0.8170876685
160 4 3.9773052521 -0.4266502653 10.1283935731
161 4 2.5036449355 4.3926789913 2.636746825
162 4 1.917613543 10.7069352436 7.8012457517
163 4 10.3375727302 4.29102819 10.6608431923
164 4 15.8006381247 15.8599763292 10.8224866368
165 4 10.7536245222 4.7928673265 14.1228635904
166 4 5.9049226143 9.9025759329 6.4246720205
167 4 7.549279305 13.6585861287 2.2288025952
168 4 1.2003195399 0.2589266358 2.5720143494
169 4 7.8910683723 3.6801143626 9.1548776736
170 4 12.581348589 15.8214306924 10.6138104019
171 4 1.724892893 7.781538142 7.2817679405
172 4 8.3285818493 3.1239905298 12.8591748634
173 4 10.0297304548 0.7232599917 12.5595185299
174 4 14.5235800038 8.5681501655 2.591597785
175 4 11.5314970233 12.269640011 5.0422225018
176 4 14.4002511363 2.0246402342 7.2337537498
177 4 0.2217963247 8.6875994146 4.5371936448
178 4 7.0881473395 11.8070690668 4.606830599
179 4 1.5132722659 16.719268779 6.6664194278
180 4 10.7346611201 16.9905198566 5.4560235974
181 4 16.3337997961 10.4068644694 10.1959113082
182 4 2.7639541332 16.710189179 0.2991282106
183 4 12.4296758883 16.4793428644 13.1245595539
184 4 12.8638712868 2.5427160194 12.4298134848
185 4 15.6181478371 5.0558352971 0.7380109382
186 4 16.4219485864 1.8831737174 1.4567462323
187 4 4.8317448062 8.6516727786 11.8015415194
188 4 8.9668054356 8.5960035931 0.6041103437
189 4 2.5831524949 10.5214336656 12.7190948947
190 4 4.7782329498 13.5376262411 3.8244077222
191 4 8.4116594355 15.0131602261 9.9965377728
192 4 0.9100759758 14.1262277514 13.0634709581
193 4 0.0568916078 12.7881403238 2.1136369075
194 4 11.1868280713 3.893005594 3.7341958406
195 4 1.6600831353 11.7601467623 4.4501946509
196 4 4.3434556875 14.3330550533 9.1182227501
197 4 16.7626126467 5.6644754576 6.2688917491
198 4 4.9313752905 8.8343980194 1.1984903597
199 4 10.0402425508 16.4478607155 8.7027191309
200 4 1.7356728811 14.0679644445 8.1401900544
