# LAMMPS data file written by OVITO Basic 3.5.4
200 atoms
4 atom types
0.0 17.510057 xlo xhi
0.0 17.510057 ylo yhi
0.0 42.024 zlo zhi

Masses

1 183.84  # W
2 92.90638  # Nb
3 178.49  # Hf
4 91.224  # Zr

Atoms  # atomic

1 1 13.1067387043 0.4624891082 13.5787612608
2 1 4.4088033211 17.2675337804 9.6587633813
3 1 13.0180290784 1.4959922066 10.995464034
4 1 0.0975320681 5.7288021198 12.0729539309
5 1 11.1250406298 4.0121849461 2.9934644942
6 1 2.4061964875 5.5032689085 4.9631478648
7 1 12.2761974783 7.9466900262 1.6106172871
8 1 8.1013780722 1.5079662839 12.1344821098
9 1 13.9296737367 13.2514973222 10.7569660673
10 1 9.8151293749 15.74211925 2.8600950266
11 1 8.2090864601 9.9301347289 6.5907869731
12 1 8.3244402642 2.7205254742 7.8274020067
13 1 17.1116454201 10.0437184413 1.1900629476
14 1 4.0496281017 7.802992868 0.5650088978
15 1 10.015529701 11.7908232508 3.2055100339
16 1 9.9752143706 13.3467394251 1.5553107614
17 1 13.739588235 0.3849255091 2.1101498513
18 1 10.0304230551 0.8858294061 7.4323490911
19 1 14.682312544 16.0143143118 6.3559556004
20 1 15.6212077538 7.3633079825 2.5793389862
21 1 12.3472722004 11.5561475135 4.9776730402
22 1 13.6812401725 15.9885197215 8.7684189636
23 1 10.5834768046 8.7770731365 11.8278918154
24 1 2.6200114434 3.0830295304 6.4717371835
25 1 5.1968819585 16.1045133431 3.5576698932
26 1 0.5379965013 16.2639951173 3.9924220411
27 1 1.404135323 1.2629715198 5.090481005
28 1 2.4643083394 0.5257739562 7.6261423469
29 1 15.5352899314 10.1499913548 10.7078837162
30 1 15.1957972419 2.8516248468 12.456920495
31 1 0.0152437303 9.2916525631 12.8654143668
32 1 4.1649694737 15.0526845693 10.9269199483
33 1 12.560425101 1.9093262073 5.9029927723
34 1 12.0878892474 0.1192401613 9.2224248274
35 1 14.9209898547 11.8921719861 8.8353005798
36 1 12.7400050938 12.8674623746 1.9486205215
37 1 14.6239396172 3.5131712597 6.8199514094
38 1 4.4245143948 12.0792569644 7.2206359613
39 1 10.5994941292 5.3300300078 0.8638028998
40 1 2.7982850108 12.82364871 9.1163869289
41 1 3.6172288008 11.5591700995 4.7800333277
42 1 7.00467575 0.5860166069 8.4553821876
43 1 0.1243702578 1.2553992957 13.4607835034
44 1 2.7352666658 14.7579001332 13.355887397
45 1 13.1161162153 2.6461632388 3.2623533773
46 1 11.5972821394 1.4342678548 1.5633272597
47 1 1.5532077186 14.5875025894 10.9041904274
48 1 0.5642179868 16.7636740107 12.2277102526
49 1 8.0943493602 5.6436643705 0.2996185128
50 1 9.8362932555 7.7583609584 0.7790661264
51 2 8.2396406341 12.0239586285 13.4874439493
52 2 11.8301033866 7.2331154557 7.0427807278
53 2 0.2773414426 6.8867090952 5.5293771396
54 2 6.2868654967 7.997974882 8.6123951981
55 2 12.4036694675 15.6670033818 1.8723889855
56 2 17.4936325665 13.9746521703 3.4129299919
57 2 13.1227854458 16.8661822619 4.7364317467
58 2 1.9456406647 10.9125315741 7.1662875828
59 2 2.2770848565 9.9721010825 1.0776693394
60 2 14.6581857867 8.613429747 8.8770615096
61 2 6.8682415883 10.8328068837 4.6724523079
62 2 5.8079857494 13.8294241077 12.5192282191
63 2 0.2989973558 5.2642655606 2.888320026
64 2 7.0396175941 6.8921638282 5.4191700401
65 2 15.7613824139 11.6036454692 2.6890821408
66 2 5.7657583208 2.2961998854 2.4542305966
67 2 2.43245632 5.5102140975 1.4934989206
68 2 3.2275354782 2.8683646364 9.4182965902
69 2 0.6268299233 10.478288289 10.1910490308
70 2 2.6633810529 0.0332193797 2.6345719699
71 2 3.4992285266 9.940684188 9.2125718803
72 2 12.2659808853 13.2126796271 13.4529258559
73 2 12.430122611 6.7206431893 13.0244272994
74 2 2.7604280924 16.3043792622 5.378578218
75 2 15.03172328 14.1601288499 0.9483190471
76 2 9.9961964968 6.5983650332 5.0067292742
77 2 12.6267218539 2.9223292313 8.1969631639
78 2 9.7122215442 11.9665165363 5.8572458662
79 2 6.8522540308 10.7140976274 8.601841711
80 2 10.4041307462 1.9960974698 10.0320268529
81 2 15.3709060416 4.7420077989 3.9715651097
82 2 4.4314725412 7.395066148 3.3033801478
83 2 2.2392305647 3.0561398612 3.1499551464
84 2 1.0721106728 15.9773691421 0.79047144
85 2 0.7319932244 7.2814843616 0.2370309089
86 2 9.3310568451 14.0579264994 7.0613074284
87 2 0.9660333467 17.4914334785 9.7740377347
88 2 15.9408559455 3.8397846019 10.1600046413
89 2 15.5761375675 16.1146714524 2.9317341799
90 2 14.2661406884 10.6553216191 6.4551688013
91 2 11.1973781773 9.5340850805 6.1601267021
92 2 17.4848218561 16.9779300449 6.9626321347
93 2 1.5091219477 7.8619571094 2.5497843475
94 2 9.888611905 11.5886071319 8.3650461365
95 2 8.079535852 6.8990916822 10.5416434961
96 2 1.6516075851 4.908679903 10.0099268515
97 2 2.7772781954 14.8128269057 2.7231476357
98 2 16.373834129 14.2553417109 7.0040098056
99 2 5.5578263939 9.1582775834 11.2967366114
100 2 12.1718919948 7.1922569634 10.2635063914
101 3 1.7399223592 5.3708800953 7.5989515582
102 3 6.6368069625 0.6615751294 0.0670211359
103 3 5.7982435039 6.3742993398 12.7614713647
104 3 0.4229781899 3.9145838883 0.183173791
105 3 7.8450625309 1.9293774988 5.0676485254
106 3 4.262164123 12.5671099155 1.7527937244
107 3 8.8139410868 2.3981711031 1.1905222699
108 3 5.8979123242 4.9916504326 9.4104229735
109 3 5.1376655722 16.3589887525 6.9817753274
110 3 15.1285320077 6.9879371861 10.979013319
111 3 10.200213175 17.4637322181 11.7624419568
112 3 12.6441555671 8.0858762436 4.0635980899
113 3 10.2148393256 15.1466598195 13.1755514868
114 3 7.7047266032 4.3239100121 3.1962710575
115 3 12.5865338217 5.0713124369 5.5375592124
116 3 3.0651191935 0.2754906296 11.9244390137
117 3 4.2431604581 1.1119124332 4.6189385261
118 3 8.2876082095 9.7710861534 10.9710195137
119 3 7.5640406494 0.0719423455 3.092628527
120 3 11.5131655766 14.4218453682 4.5350804746
121 3 10.2300322767 5.9463516206 12.0386501599
122 3 4.5716967548 5.9919427311 6.8932563941
123 3 9.6209703336 17.3050781442 0.4009993116
124 3 17.4776684725 1.1254802759 2.5764834554
125 3 9.4778504819 9.1371023213 3.4543110247
126 3 6.8674431297 7.2758813185 2.197993459
127 3 5.2582310697 1.9261216789 7.7863218658
128 3 14.3892939972 13.2993479305 4.4363450866
129 3 14.7966153945 11.5204609667 13.8928851977
130 3 2.2254359667 7.9085501454 7.8502760902
131 3 5.7307010855 2.1589297935 10.8815256235
132 3 11.7553424472 16.3849190457 6.8551154117
133 3 7.5396022131 14.5704644284 0.8698867142
134 3 2.3460252779 8.729774095 4.9764493013
135 3 16.6647726562 9.1843267699 4.2255783372
136 3 15.5021166031 0.7799917927 11.0764947108
137 3 3.2433239464 2.4926129963 0.4404321118
138 3 6.2708721608 3.2578143941 13.4401308086
139 3 7.2997832467 11.5153219401 1.8401553168
140 3 8.2944366064 13.2328937622 10.8618327569
141 3 12.9806109621 9.6537983635 12.1242072418
142 3 10.9018056135 11.8896097394 11.2888613138
143 3 0.2256792451 3.6645392238 5.4404577175
144 3 7.4370720743 16.5894804617 11.5052710459
145 3 10.7343210428 10.6520705268 0.0660575256
146 3 2.7914345512 12.1164308154 11.8153800098
147 3 13.7657824048 5.3812323912 8.6768612748
148 3 9.2345548937 8.6405335642 8.6751798946
149 3 0.9143049612 2.7589684541 11.1987072266
150 3 15.107707472 5.5539323324 14.0069198431
151 4 15.1897042673 1.1613056775 8.0550212206
152 4 15.3748188389 15.0856451504 12.482484955
153 4 0.6833958122 7.7255429091 10.1715045089
154 4 4.023783958 6.9766440749 10.2901386811
155 4 16.2731847454 15.5231185157 9.6862054735
156 4 15.8240762975 17.1842543734 0.1983797551
157 4 5.2703574845 4.8909754844 1.9451127782
158 4 12.3459936161 10.2528836015 9.1374384314
159 4 7.6800901281 9.267108366 13.8667273589
160 4 6.1871350409 14.9676872506 9.0800008687
161 4 5.0758186501 3.7891033179 4.3670004437
162 4 17.0118090285 11.3505235872 5.5622399076
163 4 10.5310485421 3.611756908 5.8370142518
164 4 16.7556459998 12.8703919822 11.749288865
165 4 10.0331281838 4.8688222855 8.3807778209
166 4 5.1580371227 9.2776828645 6.3525192979
167 4 8.0176498824 13.7557787341 3.9972400927
168 4 4.7171916706 15.815664291 0.915671442
169 4 7.7091883408 5.2416788128 6.9804246761
170 4 11.2555423843 14.409500778 9.8849310862
171 4 16.5443705275 5.7602158625 7.937344355
172 4 8.2645835352 4.2238671769 11.0442173371
173 4 10.7568550854 2.8508073023 12.5616026993
174 4 14.9449068415 8.3306673658 13.7636055058
175 4 12.904614338 13.3355522497 6.9907983005
176 4 15.6644714275 1.1879235906 4.994449021
177 4 14.8299067406 7.5353122491 6.0242929471
178 4 7.0364563284 13.2171403141 7.0429320142
179 4 2.2931270455 15.381389838 8.1259552111
180 4 10.4187922671 0.9291701241 4.0116026352
181 4 17.1694403399 9.2178059989 7.766548313
182 4 5.0355381647 11.0499905994 13.3816170113
183 4 13.3633098924 16.0474615501 11.5918140108
184 4 13.2005938355 4.2681128147 10.8775228375
185 4 12.9558569945 3.0644937343 13.8603384502
186 4 15.3773476414 2.9203901676 2.0089358878
187 4 2.7951755749 8.2789451088 12.3552022435
188 4 12.8174210831 10.3879901507 2.5464228478
189 4 3.1357116887 4.6489933255 12.4354315226
190 4 4.9591888881 13.8425128753 5.0110859023
191 4 8.519110249 16.7632513179 5.6834056056
192 4 0.4596516035 12.7723612277 0.3684449998
193 4 1.3094999437 11.0679482135 3.3661173571
194 4 13.0447995042 5.4274648951 2.340612409
195 4 2.1598024947 13.5849490421 5.5709985497
196 4 5.2479454871 12.1729420729 10.2572225426
197 4 0.1972807343 2.5278251957 8.1659599579
198 4 5.1024173022 9.874065075 2.9639598641
199 4 9.0055963651 16.1914133046 8.8339398427
200 4 17.434239854 12.5687380006 8.7538399975
