# LAMMPS data file written by OVITO Basic 3.5.4
200 atoms
4 atom types
0.0 17.50115 xlo xhi
0.0 17.50115 ylo yhi
0.0 42.0 zlo zhi

Masses

1 183.84  # W
2 92.90638  # Nb
3 178.49  # Hf
4 91.224  # Zr

Atoms  # atomic

1 1 10.6320013035 0.3658821921 11.89350876
2 1 5.0483451516 17.8438876213 7.24810926
3 1 12.4798467503 2.1970990963 12.08490444
4 1 3.3045001136 7.5447258137 9.9432354
5 1 8.9091977231 1.1598580892 5.88007056
6 1 2.1583848024 6.6076902661 4.29501786
7 1 13.3036029543 5.1430037966 2.89143792
8 1 7.8969187813 0.483807916 10.13553912
9 1 16.5252895512 11.909167851 11.40765528
10 1 8.3858575094 13.8161187067 12.14011344
11 1 9.7190959915 8.9108729332 6.1277517
12 1 8.9400084977 3.7225371328 7.60537764
13 1 15.8630194335 14.466465641 13.74941778
14 1 7.1765331198 6.0423961207 11.44832514
15 1 8.5383452044 8.8345110404 3.78272832
16 1 8.9760221891 16.9308058977 1.44182178
17 1 0.3897292591 -0.312982166 5.43540018
18 1 13.9480607516 0.5009067146 5.07696588
19 1 15.4621498174 15.6097706175 6.72812952
20 1 15.4203455204 8.5382561235 2.75616348
21 1 3.7959177046 13.772127466 3.22547148
22 1 13.1085622632 11.9983096085 3.06031488
23 1 11.77317639 4.6949080273 11.08936458
24 1 3.5191692195 5.5910285113 7.11727968
25 1 0.6652489885 14.9519834193 -0.28797468
26 1 0.1280399885 14.6725733593 5.48030238
27 1 3.06262442 3.9921066462 4.2106806
28 1 5.7202176253 15.6955290527 4.7766768
29 1 1.3718430438 11.892533358 10.66055466
30 1 16.9729901446 0.0460450006 1.61017752
31 1 16.0554582286 9.9672663237 12.8284548
32 1 2.7322244094 16.1469894182 9.05882166
33 1 13.0887499113 16.6310486507 7.24524612
34 1 12.0327693729 15.5984079959 11.09169096
35 1 16.0571645908 14.0326686612 8.86157286
36 1 10.0130670083 11.0601996654 2.66567952
37 1 12.195805886 7.4538083895 7.11759048
38 1 5.0495592064 15.3644683737 8.07097368
39 1 12.6141889029 3.2478060132 0.86489718
40 1 2.3199447435 10.4677201085 8.61733236
41 1 1.5605875212 9.5429110394 3.43859334
42 1 7.165548873 1.8784098052 7.70496216
43 1 1.0652825747 -1.1260600434 12.24019902
44 1 0.7165611352 15.1998663827 10.32298176
45 1 11.9713707884 2.2433567359 3.10091586
46 1 9.1937445457 1.6991737026 3.10051728
47 1 0.1668123862 16.2126224059 7.85024184
48 1 15.9769709962 15.8837568962 11.91745422
49 1 5.450648987 5.6922653136 2.82825018
50 1 10.540851114 8.5676979582 2.15572602
51 2 8.4243801657 6.7331840123 1.86828978
52 2 16.0115809205 7.7309826776 7.15410612
53 2 -0.8984189101 10.8713281296 2.56986534
54 2 5.7686975609 7.7332450513 10.18717476
55 2 16.4524854673 1.6583776469 3.82103232
56 2 -0.2398357596 12.722164173 0.74480658
57 2 15.7586108978 16.394712596 3.57662718
58 2 2.7637089782 11.7483905614 6.22352598
59 2 0.9785495005 11.0990931711 13.11645846
60 2 13.9280336606 12.1162362075 9.31275996
61 2 6.9205049462 11.2582712056 4.14671292
62 2 3.2388671259 17.336745422 11.36448474
63 2 -1.7666744131 6.2330361476 2.48682042
64 2 10.4066515957 8.4854780805 8.62724226
65 2 13.6268700212 9.7992180063 1.65711966
66 2 8.3905695191 16.1032456438 4.2197484
67 2 3.2823816352 5.2279622542 1.92713598
68 2 2.9064060048 2.2074569769 12.35930556
69 2 3.8476015758 12.8897599107 8.8581717
70 2 3.4630139795 0.9644318478 4.8575793
71 2 2.9168314399 9.914887832 11.74078962
72 2 12.6834906568 14.2843565496 7.87811808
73 2 9.6342596919 8.5754670687 13.63409586
74 2 6.2439054118 13.5445685882 2.78134332
75 2 14.526198466 12.6202082485 0.87476634
76 2 4.6434842232 8.0051366173 7.74279324
77 2 13.1309360834 0.8397485799 10.18178532
78 2 8.3789186535 13.5620751635 5.0640282
79 2 5.1003230421 11.1406468515 7.13079864
80 2 12.8025963082 4.00274192 5.50602696
81 2 13.4197073335 3.0161296398 8.72880918
82 2 8.1379832966 6.2896534179 4.20331716
83 2 2.2845626685 4.3469443876 13.01542368
84 2 0.8215116815 13.7592660459 12.9338559
85 2 1.1430587354 8.6547401027 13.28574996
86 2 10.1687484881 13.1393224595 7.8992256
87 2 1.962289142 0.7836888962 7.43549982
88 2 11.3841090244 4.9351067607 7.7129682
89 2 13.6629052391 15.0409512154 1.79351634
90 2 14.8349395784 10.3214110196 4.67815362
91 2 11.0652734238 10.9654505394 8.0128881
92 2 1.0366356423 2.4893348741 5.79667032
93 2 0.6676854986 7.1650206883 2.06503668
94 2 6.2710866229 8.9045532679 5.00656674
95 2 9.4829389736 5.0614832649 12.62580942
96 2 4.2043733692 3.1581096443 6.7309032
97 2 15.8022972684 15.3690669759 1.02985302
98 2 15.3743731496 12.8043924512 6.69860856
99 2 8.758671907 8.6057888611 10.95790584
100 2 11.3183453031 6.9197705979 11.66424714
101 3 17.204026151 7.4671615919 4.54727448
102 3 3.7303634721 -0.7371986663 2.80063224
103 3 6.545749321 5.0991242133 0.33991776
104 3 -0.1589209427 3.9453153965 11.95168884
105 3 7.4871790573 16.4512707125 7.49482062
106 3 2.6887727292 14.0913092395 0.83234256
107 3 4.9148476045 2.8771103048 2.39450484
108 3 4.4397300595 4.5967481022 11.27095074
109 3 6.7822700127 12.829348041 8.32890786
110 3 13.5071628552 8.1555752776 12.9915639
111 3 7.9063597766 16.3783089432 12.89471106
112 3 13.5702263241 9.7798911363 7.79362878
113 3 10.8153463261 14.1816913035 3.33434682
114 3 8.7047099112 6.4552382735 6.76151616
115 3 13.5397078188 7.1973293863 9.90739218
116 3 1.0782598524 1.1010895776 10.35271524
117 3 5.4092816937 13.177407937 5.40824718
118 3 5.6691599453 10.2626223816 9.66542346
119 3 6.3085226328 1.141926936 4.36328004
120 3 11.671213115 16.3741578454 0.8852508
121 3 10.3727511681 4.7405119989 2.14592238
122 3 5.2360750873 6.3497815939 5.3081196
123 3 6.8704763338 0.9657908121 0.54105744
124 3 16.0459311276 0.9867375885 6.8652423
125 3 11.8014157206 12.2504049237 5.40750294
126 3 11.0869141208 6.9374983878 4.40297382
127 3 6.7847859781 3.7135499422 5.37152154
128 3 15.8626755359 13.361046979 3.45370746
129 3 11.6233012667 12.3520369019 0.47874204
130 3 1.4386351327 7.8688135095 7.6952001
131 3 9.3437101499 1.9847037398 13.03196202
132 3 13.5193209041 14.4891840588 4.91278662
133 3 10.4471590575 15.4377428886 13.0580184
134 3 2.4844224763 10.4730334577 0.78303372
135 3 0.1527808392 10.2785125507 5.80603002
136 3 15.2878465889 1.3792593311 11.58091998
137 3 2.3436008729 -0.5849635129 0.63250908
138 3 9.9013190154 3.7044031412 5.2328976
139 3 6.4213280453 12.5671739886 11.01888396
140 3 8.840895635 11.2133319277 9.7878753
141 3 11.8527514939 9.7960714745 10.97067258
142 3 7.636452141 9.2352984012 7.85404368
143 3 15.2945715808 3.5817036286 5.22678786
144 3 5.604766214 0.9902635452 12.7491042
145 3 8.64861155 11.0500409478 12.88232568
146 3 5.1029104121 15.7425087897 13.4138466
147 3 16.6304128339 5.9645349044 9.77753784
148 3 9.4601587767 5.9663716501 9.67600578
149 3 2.0535124862 3.9422777219 9.16536936
150 3 16.0860749155 7.3161994722 12.55182978
151 4 14.3782659704 4.4435598362 11.5634421
152 4 13.8871555245 11.349388843 13.28919648
153 4 4.265699849 6.7824791515 12.76676478
154 4 7.1475123628 3.9200510864 13.49319132
155 4 14.6206213706 16.2861911151 9.58963026
156 4 14.2521735099 0.6591857151 1.69926876
157 4 6.4430907253 8.4114147888 2.13095274
158 4 11.299975571 12.6927548905 11.66793642
159 4 7.5912765975 3.3632084213 2.13199812
160 4 4.6167545418 1.7226961233 9.5808069
161 4 17.6413135601 4.2443727726 3.4735239
162 4 0.3697359453 9.0874677622 10.505187
163 4 10.7402534417 2.9386586992 9.86877024
164 4 14.0964726038 13.835708969 11.684547
165 4 9.9830203339 2.0474922657 0.46858056
166 4 3.2254510943 9.0444926383 5.63919258
167 4 8.746815928 14.1045595352 1.64087658
168 4 0.9074811806 15.2570120128 2.66055972
169 4 5.7331136977 4.9473598409 8.4628089
170 4 10.6285661777 15.4233747945 6.1022493
171 4 0.4351582192 5.2737263614 6.24974448
172 4 7.5563085998 3.3788796511 10.241889
173 4 9.9061094301 0.4148138324 8.70786714
174 4 11.8423479353 9.5354016459 4.44953544
175 4 8.99338473 11.3112842891 6.0048303
176 4 16.698791227 2.8054224442 9.12424422
177 4 14.1695824328 7.2220291093 5.41998282
178 4 4.5054327018 10.8551693178 2.6489862
179 4 3.0854905475 15.6540719786 5.89592514
180 4 11.5245639787 17.183800597 3.81423546
181 4 14.720003926 9.6587154489 10.33538394
182 4 6.3710563419 16.2301603083 1.9316514
183 4 13.7284428455 16.9526993113 12.9483354
184 4 11.8755742186 3.8991627639 13.8433764
185 4 15.2135197299 3.4934663306 1.50980298
186 4 1.739507728 1.7768275303 2.77608828
187 4 6.8214263857 8.2897240425 12.94833834
188 4 11.3828209398 10.4149294647 13.80483888
189 4 1.4755438329 6.4200203593 11.1780228
190 4 8.0392792608 10.9520906865 1.12787724
191 4 9.0092598482 14.8153538664 9.77952108
192 4 3.1113463965 14.1207122215 11.24188338
193 4 1.4495749265 12.5910506325 3.72921948
194 4 13.1273640987 6.9235886488 1.50555804
195 4 16.5276070535 10.7002365372 8.21592492
196 4 6.0752249528 15.7120118108 10.84448778
197 4 14.8038911382 4.9836225737 7.45548216
198 4 3.8819097802 8.0959520097 2.28654594
199 4 11.712226885 1.3375357144 6.76726344
200 4 1.0146156954 13.2267946072 7.97795712
