# LAMMPS data file written by OVITO Basic 3.5.4
200 atoms
4 atom types
0.0 17.520744 xlo xhi
0.0 17.520744 ylo yhi
0.0 42.048 zlo zhi

Masses

1 183.84  # W
2 92.90638  # Nb
3 178.49  # Hf
4 91.224  # Zr

Atoms  # atomic

1 1 10.7711690944 -0.7098278885 0.680957689
2 1 4.0981169142 18.008470878 6.0439328467
3 1 13.864900248 0.3082890544 0.7549154957
4 1 2.0303477918 6.8158798836 10.8127293984
5 1 9.1481593278 2.0869126378 4.8841451482
6 1 2.1360378254 6.8610147218 5.532129216
7 1 13.4787688058 4.9388813524 3.6906076224
8 1 5.4332391312 16.8075666709 10.6071100531
9 1 14.7245150795 13.3463069001 11.5841954074
10 1 6.6690094437 14.3400947131 12.808524263
11 1 11.4676120105 9.5679759773 6.1293436877
12 1 8.2654612665 0.6709516353 10.729660631
13 1 17.179343718 9.4771428337 2.2050980352
14 1 8.1434641509 6.5056716069 3.9500774208
15 1 9.4470309823 9.2409048605 2.0600517773
16 1 10.5582067288 14.3055261099 0.2463684826
17 1 16.7666145599 0.7762367645 4.7804858957
18 1 11.6192100728 2.2407701752 6.844793351
19 1 14.3480664764 15.9534155082 7.7437367021
20 1 17.6978724144 6.9413685331 3.4419071578
21 1 18.6632829295 14.0555998803 4.4353109203
22 1 12.4182886312 11.7185062613 7.7162558112
23 1 12.2742173054 6.8604333835 13.4720568403
24 1 4.5390271378 7.1197859486 7.0080905434
25 1 0.7137143399 15.1734005705 0.243803975
26 1 16.1655882139 15.9608097878 5.7698866886
27 1 2.7901066469 4.1549615665 6.0849464659
28 1 6.3261300605 1.5328764016 4.3880535936
29 1 -0.735226835 12.8875379574 9.4240458432
30 1 18.0137044995 4.4024289349 10.9568909664
31 1 0.0861731513 12.5698185377 12.1613706432
32 1 0.3975999957 15.5794916444 8.6473574726
33 1 12.2174478171 17.8319656765 8.3080183392
34 1 11.4767021229 1.0397625956 10.8350833766
35 1 14.3240777745 13.3882326388 8.4572054842
36 1 11.3750719961 10.0327806411 3.1671482861
37 1 15.5103789672 6.7366237469 4.3770723379
38 1 4.1289413344 14.0653226668 4.9076432525
39 1 13.7620590874 2.4619527482 1.8283084301
40 1 5.3575398807 10.633739357 9.5066546054
41 1 4.6935406519 11.7539573843 3.9895882445
42 1 5.2744421456 0.5381533313 8.5843556928
43 1 0.0838124062 2.0884735608 12.8552034298
44 1 0.9782547974 15.2926633989 11.3375687501
45 1 12.578829982 0.20601066 2.995373376
46 1 8.930717784 -2.4009742517 2.1576153312
47 1 16.7524844303 17.8306426851 7.6158628474
48 1 15.9750068467 17.7214001455 12.7526386867
49 1 4.5397234122 2.6092732961 2.7851670144
50 1 11.5937270266 9.0195076583 12.7811901197
51 2 11.8305239116 8.49715541 0.6032470982
52 2 15.7266707998 8.0629381106 7.6052591827
53 2 18.1452460404 7.5047156431 0.6537337114
54 2 8.7088888706 6.3602242018 9.729286992
55 2 14.586104706 -1.1921844833 3.5207042688
56 2 -1.5289380888 14.0152278811 3.29246352
57 2 13.1745373805 17.1060320193 5.7422863814
58 2 4.4621038882 12.3279457181 7.0789843123
59 2 1.8479927643 9.9129035354 1.2707309261
60 2 12.886421886 8.880816953 8.631602087
61 2 8.4064286174 9.342037223 4.1976858989
62 2 2.532327795 17.4443938539 10.6732519776
63 2 0.822496084 4.9525135425 1.2971215123
64 2 10.5906295664 4.7801192331 4.7635741901
65 2 14.5119980912 9.7675950699 0.8201857651
66 2 6.7081965149 16.5365134025 4.6646163245
67 2 5.9172531883 5.3636863329 2.6333657453
68 2 4.0341676003 3.0108929008 8.9512808371
69 2 1.8111270164 12.5168507005 10.3765667558
70 2 2.335873124 1.9402435112 4.1002077024
71 2 8.0509385035 12.2200874924 13.6602884966
72 2 12.5972621551 14.1943420966 12.7631145254
73 2 12.138097594 5.9051880536 1.9028570112
74 2 2.4753443785 15.1830471418 2.1455475552
75 2 11.6343465939 11.8881004053 0.5732189395
76 2 9.3784283339 7.601196248 7.3308959827
77 2 13.248060029 3.3194118273 9.1859250758
78 2 8.4370291224 14.8189359458 4.7734899494
79 2 7.0360977645 11.9605902059 8.4563922758
80 2 9.7994006517 1.7504849181 8.903148912
81 2 14.4346164988 1.8292199879 4.6134191002
82 2 8.2175106696 3.7848316445 3.2235754406
83 2 2.4177862816 0.7839777796 1.6839778291
84 2 19.0499548867 17.484502341 13.0556597011
85 2 0.4868534689 9.3862464403 12.0422057702
86 2 9.4335923964 13.7140357793 7.640940695
87 2 2.082834159 1.0292310516 7.8385406458
88 2 13.6212495985 6.3387842426 8.8141724006
89 2 12.9172818732 12.4680223143 2.8608096845
90 2 15.2855510281 10.7856219561 7.7911920749
91 2 10.2997443926 9.9114424806 9.8462325715
92 2 0.5842441013 2.8696119287 6.8071553453
93 2 2.2923946969 8.2266451094 3.2437887552
94 2 9.3781357375 10.4080777809 7.0615028563
95 2 9.0541904967 8.5600182626 11.4775398144
96 2 5.5970875224 2.4933984539 6.6579938496
97 2 14.2431093355 12.5553735604 0.5399535053
98 2 16.6911323914 13.1951112893 6.4235316787
99 2 9.2638789361 10.1382756688 13.775597568
100 2 13.9665477204 8.1624832689 10.7373865306
101 3 3.039481674 9.7148981033 6.2878301683
102 3 2.6537111591 3.0500547422 12.0438578362
103 3 4.3480585621 5.2525359594 11.0064331814
104 3 1.4980080185 5.5692036088 13.0506181459
105 3 7.7680531262 18.2531263422 7.6176751162
106 3 4.0655497057 15.8100408072 0.2869544736
107 3 5.6339434587 4.996663014 5.2032852634
108 3 5.4141301318 5.2720989213 8.3246033318
109 3 6.5627512123 15.1990949168 7.4396930803
110 3 14.8572492575 11.3338088919 12.9404687846
111 3 6.9674499126 16.9583416086 12.787438873
112 3 12.6446426271 7.0726339472 6.0403083091
113 3 11.189005199 14.6103411512 3.9245303174
114 3 10.982257266 5.3629911098 8.1839237587
115 3 13.6773890408 4.4189266427 6.3583358342
116 3 0.5951151973 1.9908572613 9.7836273043
117 3 4.2120537868 17.1002682201 3.6353847226
118 3 7.6529549787 9.3993770115 8.9709555168
119 3 8.8185228237 0.1403811067 3.1356509702
120 3 9.4872848916 12.4753163752 2.7477543859
121 3 9.1215372581 5.6816312445 1.7014786272
122 3 7.1672387813 6.6795152322 6.5089294848
123 3 8.520266673 -1.2617081971 -0.3178109779
124 3 15.8041126635 15.8539188824 0.8528915405
125 3 13.9689184523 9.7438679527 5.2915864838
126 3 10.7987292247 7.4018841188 3.7690006522
127 3 8.8832886043 3.943274711 6.800579879
128 3 13.7654889482 13.4156156344 5.3701266816
129 3 12.1348012412 10.5354518377 14.7655071418
130 3 4.2002066102 8.2536515842 9.34001712
131 3 5.0044481814 1.5461958464 11.7496479802
132 3 11.6915360544 15.2041876715 7.2413404704
133 3 9.1347598132 14.5915836179 12.4573229683
134 3 3.1763383079 12.3350589649 1.7034035846
135 3 16.2303622293 11.2643666495 4.2001066022
136 3 13.5714623019 5.3461410599 11.344150944
137 3 6.4192179486 -0.4670560794 1.4834328365
138 3 11.3421214337 3.1566789819 0.9819473645
139 3 6.5609507807 11.227015577 2.3794580563
140 3 7.866479585 11.6456048984 11.1176013658
141 3 12.9747903865 11.0649441396 10.4845699872
142 3 10.735054636 11.8723827211 12.3488853811
143 3 17.4849508721 3.4045964582 4.1069450534
144 3 4.2702047858 15.2713851561 12.1201787405
145 3 9.3265951401 11.6914130588 -0.4644916416
146 3 4.9835960432 12.1700477219 12.3570363859
147 3 -0.9592274446 7.227462309 10.4760783936
148 3 11.2967884359 7.2325456025 10.5552312307
149 3 2.0986343659 5.2406122171 8.7383976998
150 3 14.6037668424 8.160061026 13.4579829542
151 4 16.3244277749 4.8661727177 9.211738343
152 4 16.7919684781 14.9492389453 13.4902568966
153 4 2.4030730616 10.0432967669 10.846870272
154 4 6.7362891006 6.5809207495 12.1795248672
155 4 15.0728497215 0.6501757122 10.0796056992
156 4 13.2277019757 15.1474753008 1.3943840026
157 4 4.7036742998 7.5711837392 4.4607516422
158 4 10.5873135904 12.9391006309 9.5830713792
159 4 7.3240399789 1.9614653372 1.183052857
160 4 3.5877462267 -1.5775511451 8.0164036858
161 4 2.5022569421 4.869279496 3.4213334918
162 4 0.7079612284 10.8170224583 7.3550134541
163 4 10.3542240949 3.8724800424 10.7903573395
164 4 15.6075225571 15.4847829122 10.7325779213
165 4 9.8547879284 5.8050577025 13.3654546483
166 4 6.1456816403 9.9035910848 5.940477527
167 4 6.7708039151 13.847326241 -0.2497760525
168 4 0.3118278942 -1.0654884792 3.0505617965
169 4 7.1567620772 2.8506013958 9.7534986509
170 4 12.7414477162 15.3958362272 9.914087952
171 4 0.9437629351 8.2555415469 8.2983582317
172 4 5.6393361685 4.3468832706 12.9761772077
173 4 10.4612637514 -0.1248908418 12.7143077299
174 4 14.2810876506 8.0673415992 2.6807689786
175 4 10.5609608145 12.3835173131 5.4823296672
176 4 14.76567376 1.8563960635 7.3305503482
177 4 0.1834898461 8.9927229961 5.0658732403
178 4 7.0115708254 12.5037886355 5.1619705805
179 4 1.4057509641 16.6583421438 5.812988832
180 4 9.7437442563 16.8064096009 5.8576143744
181 4 15.8962658198 10.5033487537 10.3778117971
182 4 0.659331177 18.0723056063 -0.2865276864
183 4 13.4420153659 17.9014327984 12.6122000486
184 4 15.1396790954 3.1451436744 12.2602385261
185 4 15.819592416 5.5020182134 1.8118037491
186 4 16.6084423641 1.2208587577 1.8889378618
187 4 6.239513284 9.5127514682 12.1116514061
188 4 7.1014967448 7.7996277846 1.5876488045
189 4 3.8138714016 7.9948227142 12.9696858374
190 4 5.9539906844 14.2903449109 2.6712598234
191 4 7.4020637065 14.7198207465 10.4420047968
192 4 2.2028957581 13.5920859697 13.5525922157
193 4 0.1562813571 12.6131073904 1.7020382861
194 4 11.6424888341 2.4805590775 3.8814197645
195 4 1.4470606735 11.3810486723 4.2802631251
196 4 4.4028513601 13.6897225933 9.8530346765
197 4 16.9221826475 5.9211739804 6.5334152966
198 4 3.4488379137 5.9319022824 0.8888615021
199 4 9.5448962516 16.3000320661 9.4776028013
200 4 1.9893376871 13.6426744898 7.7966440186
